LAMMPS (23 Jun 2022 - Update 4)
WARNING: Using I/O redirection is unreliable with parallel runs. Better use -in switch to read input file. (../lammps.cpp:530)
units           metal
        newton          on
        dimension       3
        boundary        p p p
        atom_style      atomic

        processors * * 1

        read_data coo
Reading data file ...
  orthogonal box = (-42.60845 -42.60845 -42.60845) to (42.60845 42.60845 42.60845)
  3 by 2 by 1 MPI processor grid
  reading atoms ...
  4891 atoms
  read_data CPU = 0.008 seconds

        pair_style mlip mlip.ini
        pair_coeff * *

        neigh_modify    every 1 delay 0 check yes
        variable        e equal etotal

        thermo 10
        thermo_style custom step epair etotal cpu

        group freeze id 0 1 2 3 4 5 6 7 8 9 10 11 12 13 14 15 16 17 18 19 20 21 22 23 24 25 26 27 28 29 30 31 32 33 34 35 36 37 38 39 40 41 42 43 44 45 46 47 48 49 50 51 52 53 54 55 56 57 58 59 60 61 62 63 64 65 66 67 68 69 70 71 72 73 74 75 76 77 78 79 80 81 82 83 84 90 91 92 93 94 95 96 97 98 99 100 101 102 103 104 105 106 117 118 119 120 121 122 123 124 125 126 127 128 129 130 131 145 146 147 148 149 150 151 152 153 154 155 156 157 174 175 176 177 178 179 180 181 182 183 184 204 205 206 207 208 209 210 211 212 213 234 235 236 237 238 239 240 241 242 243 265 266 267 268 269 270 271 272 273 274 297 298 299 300 301 302 303 304 305 306 330 331 332 333 334 335 336 337 338 339 364 365 366 367 368 369 370 371 372 398 399 400 401 402 403 404 405 432 433 434 435 436 437 438 439 440 466 467 468 469 470 471 472 473 474 501 502 503 504 505 506 507 508 509 535 536 537 538 539 540 541 542 543 570 571 572 573 574 575 576 577 578 604 605 606 607 608 609 610 611 612 639 640 641 642 643 644 645 646 647 673 674 675 676 677 678 679 680 681 682 707 708 709 710 711 712 713 714 715 741 742 743 744 745 746 747 748 773 774 775 776 777 778 779 780 781 805 806 807 808 809 810 811 812 813 814 837 838 839 840 841 842 843 844 845 846 868 869 870 871 872 873 874 875 876 877 878 897 898 899 900 901 902 903 904 905 906 907 908 926 927 928 929 930 931 932 933 934 935 936 937 938 953 954 955 956 957 958 959 960 961 962 963 964 965 966 978 979 980 981 982 983 984 985 986 987 988 989 990 991 992 1001 1002 1003 1004 1005 1006 1007 1008 1009 1010 1011 1012 1013 1014 1015 1016 1017 1018 1019 1020 1021 1022 1023 1024 1025 1026 1027 1028 1029 1030 1031 1032 1033 1034 1035 1036 1037 1038 1039 1040 1041 1042 1043 1044 1045 1046 1047 1048 1049 1050 1051 1052 1053 1054 1055 1056 1057 1058 1059 1060 1061 1062 1063 1064 1065 1066 1067 1068 1069 1070 1071 1072 1073 1074 1075 1076 1077 1078 1079 1080 1081 1082 1083 1084 1085 1086 1087 1088 1089 1090 1091 1092 1093 1094 1095 1096 1097 1098 1099 1100 1101 1102 1103 1104 1105 1106 1107 1108 1109 1110 1111 1112 1113 1114 1115 1116 1117 1118 1119 1120 1121 1122 1123 1124 1125 1126 1127 1128 1129 1130 1131 1132 1133 1134 1135 1136 1137 1138 1139 1140 1141 1142 1143 1144 1145 1146 1147 1148 1149 1150 1151 1152 1153 1154 1155 1156 1157 1158 1159 1160 1161 1162 1163 1164 1165 1166 1167 1168 1169 1170 1171 1172 1173 1174 1175 1176 1177 1178 1179 1180 1181 1182 1183 1184 1185 1186 1196 1197 1198 1199 1200 1201 1202 1203 1204 1205 1206 1207 1208 1209 1210 1223 1224 1225 1226 1227 1228 1229 1230 1231 1232 1233 1234 1235 1251 1252 1253 1254 1255 1256 1257 1258 1259 1260 1261 1280 1281 1282 1283 1284 1285 1286 1287 1288 1289 1290 1310 1311 1312 1313 1314 1315 1316 1317 1318 1319 1320 1341 1342 1343 1344 1345 1346 1347 1348 1349 1350 1372 1373 1374 1375 1376 1377 1378 1379 1380 1381 1404 1405 1406 1407 1408 1409 1410 1411 1412 1413 1437 1438 1439 1440 1441 1442 1443 1444 1445 1446 1471 1472 1473 1474 1475 1476 1477 1478 1479 1505 1506 1507 1508 1509 1510 1511 1512 1539 1540 1541 1542 1543 1544 1545 1546 1547 1573 1574 1575 1576 1577 1578 1579 1580 1581 1608 1609 1610 1611 1612 1613 1614 1615 1616 1642 1643 1644 1645 1646 1647 1648 1649 1650 1677 1678 1679 1680 1681 1682 1683 1684 1685 1711 1712 1713 1714 1715 1716 1717 1718 1719 1746 1747 1748 1749 1750 1751 1752 1753 1779 1780 1781 1782 1783 1784 1785 1786 1787 1812 1813 1814 1815 1816 1817 1818 1819 1820 1821 1845 1846 1847 1848 1849 1850 1851 1852 1853 1854 1877 1878 1879 1880 1881 1882 1883 1884 1885 1886 1908 1909 1910 1911 1912 1913 1914 1915 1916 1917 1938 1939 1940 1941 1942 1943 1944 1945 1946 1947 1948 1968 1969 1970 1971 1972 1973 1974 1975 1976 1977 1996 1997 1998 1999 2000 2001 2002 2003 2004 2005 2006 2022 2023 2024 2025 2026 2027 2028 2029 2030 2031 2032 2033 2034 2047 2048 2049 2050 2051 2052 2053 2054 2055 2056 2057 2058 2059 2060 2061 2071 2072 2073 2074 2075 2076 2077 2078 2079 2080 2081 2082 2083 2084 2085 2086 2087 2088 2089 2090 2091 2092 2093 2094 2095 2096 2097 2098 2099 2100 2101 2102 2103 2104 2105 2106 2107 2108 2109 2110 2111 2112 2113 2114 2115 2116 2117 2118 2119 2120 2121 2122 2123 2124 2125 2126 2127 2128 2129 2130 2131 2132 2133 2134 2135 2136 2137 2138 2139 2140 2141 2142 2143 2144 2145 2146 2147 2148 2149 2150 2151 2152 2153 2154 2155 2156 2157 2158 2159 2160 2161 2162 2163 2164 2165 2166 2167 2168 2169 2170 2171 2172 2173 2174 2175 2176 2177 2178 2179 2180 2181 2182 2183 2184 2185 2186 2187 2188 2189 2190 2191 2192 2193 2194 2195 2196 2197 2198 2199 2200 2201 2202 2203 2204 2205 2206 2207 2208 2209 2210 2211 2212 2213 2214 2215 2216 2217 2218 2219 2220 2221 2222 2223 2224 2225 2226 2227 2228 2229 2230 2231 2232 2233 2234 2235 2236 2237 2238 2239 2240 2241 2242 2243 2244 2245 2246 2247 2248 2249 2255 2256 2257 2258 2259 2260 2261 2262 2263 2264 2265 2266 2267 2268 2269 2270 2271 2283 2284 2285 2286 2287 2288 2289 2290 2291 2292 2293 2294 2295 2296 2311 2312 2313 2314 2315 2316 2317 2318 2319 2320 2321 2322 2339 2340 2341 2342 2343 2344 2345 2346 2347 2348 2349 2350 2369 2370 2371 2372 2373 2374 2375 2376 2377 2378 2399 2400 2401 2402 2403 2404 2405 2406 2407 2408 2430 2431 2432 2433 2434 2435 2436 2437 2438 2439 2462 2463 2464 2465 2466 2467 2468 2469 2470 2471 2495 2496 2497 2498 2499 2500 2501 2502 2503 2504 2529 2530 2531 2532 2533 2534 2535 2536 2537 2563 2564 2565 2566 2567 2568 2569 2570 2571 2597 2598 2599 2600 2601 2602 2603 2604 2605 2632 2633 2634 2635 2636 2637 2638 2639 2666 2667 2668 2669 2670 2671 2672 2673 2674 2701 2702 2703 2704 2705 2706 2707 2708 2735 2736 2737 2738 2739 2740 2741 2742 2743 2770 2771 2772 2773 2774 2775 2776 2777 2804 2805 2806 2807 2808 2809 2810 2811 2812 2838 2839 2840 2841 2842 2843 2844 2845 2846 2847 2873 2874 2875 2876 2877 2878 2879 2880 2881 2906 2907 2908 2909 2910 2911 2912 2913 2938 2939 2940 2941 2942 2943 2944 2945 2946 2970 2971 2972 2973 2974 2975 2976 2977 2978 2979 3002 3003 3004 3005 3006 3007 3008 3009 3010 3011 3012 3033 3034 3035 3036 3037 3038 3039 3040 3041 3042 3043 3063 3064 3065 3066 3067 3068 3069 3070 3071 3072 3073 3091 3092 3093 3094 3095 3096 3097 3098 3099 3100 3101 3102 3103 3119 3120 3121 3122 3123 3124 3125 3126 3127 3128 3129 3130 3131 3144 3145 3146 3147 3148 3149 3150 3151 3152 3153 3154 3155 3156 3157 3166 3167 3168 3169 3170 3171 3172 3173 3174 3175 3176 3177 3178 3179 3180 3181 3182 3183 3184 3185 3186 3187 3188 3189 3190 3191 3192 3193 3194 3195 3196 3197 3198 3199 3200 3201 3202 3203 3204 3205 3206 3207 3208 3209 3210 3211 3212 3213 3214 3215 3216 3217 3218 3219 3220 3221 3222 3223 3224 3225 3226 3227 3228 3229 3230 3231 3232 3233 3234 3235 3236 3237 3238 3239 3240 3241 3242 3243 3244 3245 3246 3247 3248 3249 3250 3251 3252 3253 3254 3255 3256 3257 3258 3259 3260 3261 3262 3263 3264 3265 3266 3267 3268 3269 3270 3271 3272 3273 3274 3275 3276 3277 3278 3279 3280 3281 3282 3283 3284 3285 3286 3287 3288 3289 3290 3291 3292 3293 3294 3295 3296 3297 3298 3299 3300 3301 3302 3303 3304 3305 3306 3307 3308 3309 3310 3311 3312 3313 3314 3315 3316 3317 3318 3319 3320 3321 3322 3323 3324 3325 3326 3327 3328 3329 3330 3331 3332 3333 3334 3335 3336 3337 3338 3339 3340 3341 3342 3343 3344 3345 3346 3347 3348 3349 3350 3351 3361 3362 3363 3364 3365 3366 3367 3368 3369 3370 3371 3372 3373 3374 3375 3389 3390 3391 3392 3393 3394 3395 3396 3397 3398 3399 3400 3416 3417 3418 3419 3420 3421 3422 3423 3424 3425 3426 3445 3446 3447 3448 3449 3450 3451 3452 3453 3454 3455 3475 3476 3477 3478 3479 3480 3481 3482 3483 3484 3485 3507 3508 3509 3510 3511 3512 3513 3514 3515 3538 3539 3540 3541 3542 3543 3544 3545 3546 3570 3571 3572 3573 3574 3575 3576 3577 3578 3603 3604 3605 3606 3607 3608 3609 3610 3611 3636 3637 3638 3639 3640 3641 3642 3643 3644 3670 3671 3672 3673 3674 3675 3676 3677 3678 3704 3705 3706 3707 3708 3709 3710 3711 3712 3739 3740 3741 3742 3743 3744 3745 3746 3773 3774 3775 3776 3777 3778 3779 3780 3781 3808 3809 3810 3811 3812 3813 3814 3815 3842 3843 3844 3845 3846 3847 3848 3849 3850 3877 3878 3879 3880 3881 3882 3883 3884 3885 3911 3912 3913 3914 3915 3916 3917 3918 3944 3945 3946 3947 3948 3949 3950 3951 3952 3977 3978 3979 3980 3981 3982 3983 3984 3985 3986 4011 4012 4013 4014 4015 4016 4017 4018 4019 4043 4044 4045 4046 4047 4048 4049 4050 4051 4074 4075 4076 4077 4078 4079 4080 4081 4082 4104 4105 4106 4107 4108 4109 4110 4111 4112 4113 4133 4134 4135 4136 4137 4138 4139 4140 4141 4142 4161 4162 4163 4164 4165 4166 4167 4168 4169 4170 4171 4188 4189 4190 4191 4192 4193 4194 4195 4196 4197 4198 4199 4213 4214 4215 4216 4217 4218 4219 4220 4221 4222 4223 4224 4225 4226 4236 4237 4238 4239 4240 4241 4242 4243 4244 4245 4246 4247 4248 4249 4250 4251 4252 4253 4256 4257 4258 4259 4260 4261 4262 4263 4264 4265 4266 4267 4268 4269 4270 4271 4272 4273 4274 4275 4276 4277 4278 4279 4280 4281 4282 4283 4284 4285 4286 4287 4288 4289 4290 4291 4292 4293 4294 4295 4296 4297 4298 4299 4300 4301 4302 4303 4304 4305 4306 4307 4308 4309 4310 4311 4312 4313 4314 4315 4316 4317 4318 4319 4320 4321 4322 4323 4324 4325 4326 4327 4328 4329
1902 atoms in group freeze
        fix 4 freeze setforce 0.0 0.0 0.0

        dump            1 all xyz 50 opt.xyz
        dump_modify     1 append no element C H

        minimize        1.0e-10 1.0e-6 20000 200000
Neighbor list info ...
  update every 1 steps, delay 0 steps, check yes
  max neighbors/atom: 2000, page size: 100000
  master list distance cutoff = 7
  ghost atom cutoff = 7
  binsize = 3.5, bins = 25 25 25
  1 neighbor lists, perpetual/occasional/extra = 1 0 0
  (1) pair mlip, perpetual
      attributes: full, newton on
      pair build: full/bin/atomonly
      stencil: full/bin/3d
      bin: standard
Per MPI rank memory allocation (min/avg/max) = 5.344 | 5.481 | 5.746 Mbytes
   Step         E_pair         TotEng          CPU      
         0  -41588.167     -41588.167      0            
        10  -41596.426     -41596.426      8.0402144    
        20  -41613.152     -41613.152      13.103896    
        30  -41701.743     -41701.743      18.620191    
        40  -41866.386     -41866.386      25.391945    
        50  -42133.003     -42133.003      30.047658    
        60  -42455.045     -42455.045      35.550049    
        70  -42775.862     -42775.862      41.520914    
        80  -43159.377     -43159.377      47.900139    
        90  -43340.599     -43340.599      56.451255    
       100  -43520.015     -43520.015      63.277698    
       110  -43692.538     -43692.538      70.956217    
       120  -43976.588     -43976.588      78.609256    
       130  -44084.979     -44084.979      86.726161    
       140  -44150.883     -44150.883      95.267516    
       150  -44204.367     -44204.367      103.42689    
       160  -44352.875     -44352.875      110.23837    
       170  -44427.329     -44427.329      118.33761    
       180  -44492.719     -44492.719      126.87194    
       190  -44548.556     -44548.556      135.45406    
       200  -44580.861     -44580.861      144.07722    
       210  -44590.654     -44590.654      152.73517    
       220  -44593.338     -44593.338      161.36042    
       230  -44594.912     -44594.912      169.99138    
       240  -44595.943     -44595.943      178.7368     
       250  -44607.645     -44607.645      187.48641    
       260  -44611.422     -44611.422      196.24845    
       270  -44613.439     -44613.439      205.03416    
       280  -44614.671     -44614.671      213.83169    
       290  -44617.74      -44617.74       222.50552    
       300  -44736.305     -44736.305      230.84981    
       310  -44925.571     -44925.571      237.76112    
       320  -45062.3       -45062.3        246.43193    
   