4891
 Atoms. Timestep: 0
C -26.2752 -33.21 -1.585
C -24.1448 -34.44 -1.585
C -22.0144 -35.67 -1.585
C -19.8839 -36.9 -1.585
C -17.7535 -38.13 -1.585
C -15.6231 -39.36 -1.585
C -32.6665 -27.06 -1.585
C -30.5361 -28.29 -1.585
C -28.4056 -29.52 -1.585
C -26.2752 -30.75 -1.585
C -24.1448 -31.98 -1.585
C -22.0144 -33.21 -1.585
C -19.8839 -34.44 -1.585
C -17.7535 -35.67 -1.585
C -15.6231 -36.9 -1.585
C -13.4927 -38.13 -1.585
C -11.3623 -39.36 -1.585
C -9.23183 -40.59 -1.585
C -7.10141 -41.82 -1.585
C -34.7969 -23.37 -1.585
C -32.6665 -24.6 -1.585
C -30.5361 -25.83 -1.585
C -28.4056 -27.06 -1.585
C -26.2752 -28.29 -1.585
C -24.1448 -29.52 -1.585
C -22.0144 -30.75 -1.585
C -19.8839 -31.98 -1.585
C -17.7535 -33.21 -1.585
C -15.6231 -34.44 -1.585
C -13.4927 -35.67 -1.585
C -11.3623 -36.9 -1.585
C -9.23183 -38.13 -1.585
C -7.10141 -39.36 -1.585
C -4.97099 -40.59 -1.585
C -2.84056 -41.82 -1.585
C -36.9273 -19.68 -1.585
C -34.7969 -20.91 -1.585
C -32.6665 -22.14 -1.585
C -30.5361 -23.37 -1.585
C -28.4056 -24.6 -1.585
C -26.2752 -25.83 -1.585
C -24.1448 -27.06 -1.585
C -22.0144 -28.29 -1.585
C -19.8839 -29.52 -1.585
C -17.7535 -30.75 -1.585
C -15.6231 -31.98 -1.585
C -13.4927 -33.21 -1.585
C -11.3623 -34.44 -1.585
C -9.23183 -35.67 -1.585
C -7.10141 -36.9 -1.585
C -4.97099 -38.13 -1.585
C -2.84056 -39.36 -1.585
C -0.710141 -40.59 -1.585
C 1.42028 -41.82 -1.585
C -39.0577 -15.99 -1.585
C -36.9273 -17.22 -1.585
C -34.7969 -18.45 -1.585
C -32.6665 -19.68 -1.585
C -30.5361 -20.91 -1.585
C -28.4056 -22.14 -1.585
C -26.2752 -23.37 -1.585
C -24.1448 -24.6 -1.585
C -22.0144 -25.83 -1.585
C -19.8839 -27.06 -1.585
C -17.7535 -28.29 -1.585
C -15.6231 -29.52 -1.585
C -13.4927 -30.75 -1.585
C -11.3623 -31.98 -1.585
C -9.23183 -33.21 -1.585
C -7.10141 -34.44 -1.585
C -4.97099 -35.67 -1.585
C -2.84056 -36.9 -1.585
C -0.710141 -38.13 -1.585
C 1.42028 -39.36 -1.585
C 3.5507 -40.59 -1.585
C 5.68113 -41.82 -1.585
C -39.0577 -13.53 -1.585
C -36.9273 -14.76 -1.585
C -34.7969 -15.99 -1.585
C -32.6665 -17.22 -1.585
C -30.5361 -18.45 -1.585
C -28.4056 -19.68 -1.585
C -26.2752 -20.91 -1.585
C -24.1448 -22.14 -1.585
C -22.0106 -23.363 -1.58565
C -19.8792 -24.5918 -1.57419
C -17.7484 -25.8211 -1.56801
C -15.6182 -27.0509 -1.56618
C -13.4874 -28.2807 -1.56791
C -11.3623 -29.52 -1.585
C -9.23183 -30.75 -1.585
C -7.10141 -31.98 -1.585
C -4.97099 -33.21 -1.585
C -2.84056 -34.44 -1.585
C -0.710141 -35.67 -1.585
C 1.42028 -36.9 -1.585
C 3.5507 -38.13 -1.585
C 5.68113 -39.36 -1.585
C 7.81155 -40.59 -1.585
C -41.1882 -9.84 -1.585
C -39.0577 -11.07 -1.585
C -36.9273 -12.3 -1.585
C -34.7969 -13.53 -1.585
C -32.6665 -14.76 -1.585
C -30.5361 -15.99 -1.585
C -28.4056 -17.22 -1.585
C -26.2782 -18.4388 -1.56809
C -24.1476 -19.664 -1.58702
C -22.0113 -20.8926 -1.58027
C -19.8742 -22.1197 -1.53976
C -17.7384 -23.3463 -1.49809
C -15.6082 -24.5736 -1.4708
C -13.4809 -25.8049 -1.46464
C -11.3507 -27.035 -1.49672
C -9.22739 -28.2605 -1.55101
C -7.10519 -29.5082 -1.57728
C -4.97099 -30.75 -1.585
C -2.84056 -31.98 -1.585
C -0.710141 -33.21 -1.585
C 1.42028 -34.44 -1.585
C 3.5507 -35.67 -1.585
C 5.68113 -36.9 -1.585
C 7.81155 -38.13 -1.585
C 9.94197 -39.36 -1.585
C 12.0724 -40.59 -1.585
C -41.1882 -7.38 -1.585
C -39.0577 -8.61 -1.585
C -36.9273 -9.84 -1.585
C -34.7969 -11.07 -1.585
C -32.6665 -12.3 -1.585
C -30.5361 -13.53 -1.585
C -28.4337 -14.7668 -1.37333
C -26.2937 -15.9723 -1.4085
C -24.1574 -17.1984 -1.54735
C -22.0111 -18.4246 -1.5298
C -19.878 -19.6515 -1.49031
C -17.7371 -20.8757 -1.44489
C -15.5956 -22.0966 -1.39845
C -13.4681 -23.3303 -1.35599
C -11.344 -24.5631 -1.32556
C -9.21463 -25.7694 -1.42589
C -7.09784 -27.0106 -1.51534
C -4.99323 -28.2755 -1.6202
C -2.86476 -29.5152 -1.66588
C -0.710141 -30.75 -1.585
C 1.42028 -31.98 -1.585
C 3.5507 -33.21 -1.585
C 5.68113 -34.44 -1.585
C 7.81155 -35.67 -1.585
C 9.94197 -36.9 -1.585
C 12.0724 -38.13 -1.585
C 14.2028 -39.36 -1.585
C -41.1882 -4.92 -1.585
C -39.0577 -6.15 -1.585
C -36.9273 -7.38 -1.585
C -34.7969 -8.61 -1.585
C -32.6665 -9.84 -1.585
C -30.5541 -11.0941 -1.48881
C -28.5339 -12.254 -0.708755
C -26.3101 -13.4935 -0.743579
C -24.1561 -14.7014 -0.979442
C -21.9866 -15.9925 -1.23519
C -19.8639 -17.1964 -1.43793
C -17.7333 -18.4146 -1.40341
C -15.5971 -19.6313 -1.35598
C -13.4422 -20.8284 -1.32519
C -11.3425 -22.1032 -1.20409
C -9.20087 -23.3308 -1.14403
C -7.02354 -24.409 -1.4521
C -5.00371 -25.8004 -1.5873
C -2.90311 -27.0825 -1.92823
C -0.742679 -28.3216 -2.21255
C 1.39166 -29.513 -1.6122
C 3.5507 -30.75 -1.585
C 5.68113 -31.98 -1.585
C 7.81155 -33.21 -1.585
C 9.94197 -34.44 -1.585
C 12.0724 -35.67 -1.585
C 14.2028 -36.9 -1.585
C 16.3332 -38.13 -1.585
C -41.1882 -2.46 -1.585
C -39.0577 -3.69 -1.585
C -36.9273 -4.92 -1.585
C -34.7969 -6.15 -1.585
C -32.6786 -7.39193 -1.70072
C -30.58 -8.6783 -2.16507
C -28.506 -9.79872 -1.37886
C -26.3637 -10.9291 -0.528201
C -24.1485 -12.1568 -0.211706
C -22.0886 -13.6102 -0.266289
C -19.8366 -14.7326 -0.917475
C -17.6734 -15.9443 -1.42026
C -15.5903 -17.1694 -1.35762
C -13.4556 -18.3929 -1.28513
C -11.226 -19.5223 -1.43628
C -9.17337 -20.7825 -0.705973
C -6.9465 -21.8621 -0.770893
C -4.80782 -23.2894 -0.696747
C -2.86276 -24.5957 -1.72575
C -0.71763 -25.8476 -1.97238
C 1.41409 -27.0386 -1.82034
C 3.52201 -28.2411 -1.77794
C 5.67472 -29.4895 -1.07259
C 7.81155 -30.75 -1.585
C 9.94197 -31.98 -1.585
C 12.0724 -33.21 -1.585
C 14.2028 -34.44 -1.585
C 16.3332 -35.67 -1.585
C 18.4637 -36.9 -1.585
C -41.1882 1.77636e-15 -1.585
C -39.0577 -1.23 -1.585
C -36.9273 -2.46 -1.585
C -34.7969 -3.69 -1.585
C -32.6815 -4.92727 -1.75067
C -30.5857 -6.15538 -2.06469
C -28.4962 -7.36567 -2.12143
C -26.3875 -8.46785 -1.31672
C -24.325 -9.56685 -0.741152
C -21.9628 -10.8872 -0.33775
C -19.7395 -12.1995 -0.465051
C -17.7702 -13.4654 -1.66931
C -15.4837 -14.5798 -0.944234
C -13.4319 -15.9724 -1.58814
C -11.2651 -17.1556 -1.48102
C -8.9859 -18.1535 -1.03714
C -6.97866 -19.5578 -1.34316
C -4.91852 -20.9266 -1.89847
C -2.84449 -22.156 -1.76678
C -0.784725 -23.4351 -2.22171
C 1.43481 -24.6954 -2.01009
C 3.45603 -25.8516 -1.69294
C 5.55169 -27.0527 -1.93825
C 7.80511 -28.3288 -1.64273
C 9.94197 -29.52 -1.585
C 12.0724 -30.75 -1.585
C 14.2028 -31.98 -1.585
C 16.3332 -33.21 -1.585
C 18.4637 -34.44 -1.585
C 20.5941 -35.67 -1.585
C -41.1882 2.46 -1.585
C -39.0577 1.23 -1.585
C -36.9273 8.88178e-16 -1.585
C -34.7969 -1.23 -1.585
C -32.6808 -2.46365 -1.72697
C -30.5916 -3.69366 -2.07729
C -28.495 -4.9312 -2.38368
C -26.382 -6.16403 -2.48144
C -24.242 -7.34349 -2.0347
C -22.0642 -8.46444 -1.18341
C -20.0007 -9.63585 -1.15759
C -17.8563 -11.143 -1.86502
C -15.7091 -12.3714 -2.13928
C -13.4705 -13.5175 -2.14487
C -11.3482 -14.7489 -2.15732
C -9.21948 -15.7307 -1.50065
C -7.0463 -17.1016 -1.92412
C -4.93269 -18.4038 -2.16354
C -2.86462 -19.7571 -2.23974
C -0.823174 -20.9794 -2.55146
C 1.34485 -22.1006 -2.15224
C 3.35226 -23.2991 -1.06297
C 5.60456 -24.5023 -1.52264
C 7.56344 -26.12 -0.769383
C 9.92472 -27.0948 -1.3041
C 12.0724 -28.29 -1.585
C 14.2028 -29.52 -1.585
C 16.3332 -30.75 -1.585
C 18.4637 -31.98 -1.585
C 20.5941 -33.21 -1.585
C 22.7245 -34.44 -1.585
C -41.1882 4.92 -1.585
C -39.0577 3.69 -1.585
C -36.9273 2.46 -1.585
C -34.7969 1.23 -1.585
C -32.6745 -0.00191028 -1.68289
C -30.577 -1.23588 -1.97366
C -28.484 -2.47517 -2.30759
C -26.3753 -3.71484 -2.5748
C -24.2 -4.98384 -2.88992
C -22.213 -6.07191 -1.72739
C -20.0509 -7.45601 -2.14915
C -17.8717 -8.61349 -1.7333
C -15.665 -9.87287 -1.72348
C -13.5654 -11.0376 -2.76578
C -11.4055 -12.2335 -1.83433
C -9.23473 -13.4675 -2.27954
C -7.0152 -14.803 -2.08014
C -4.92666 -15.9626 -2.78732
C -2.77479 -17.2047 -2.77488
C -0.605862 -18.46 -2.17385
C 1.52136 -19.7178 -2.8636
C 3.58765 -21.0266 -2.31379
C 5.5201 -22.1543 -1.18743
C 7.62757 -23.5576 -0.902724
C 9.76043 -24.7144 -0.829203
C 12.0072 -25.8157 -1.34761
C 14.2028 -27.06 -1.585
C 16.3332 -28.29 -1.585
C 18.4637 -29.52 -1.585
C 20.5941 -30.75 -1.585
C 22.7245 -31.98 -1.585
C 24.8549 -33.21 -1.585
C -41.1882 7.38 -1.585
C -39.0577 6.15 -1.585
C -36.9273 4.92 -1.585
C -34.7969 3.69 -1.585
C -32.6695 2.4568 -1.63319
C -30.5524 1.22189 -1.81383
C -28.4551 -0.023767 -2.05782
C -26.355 -1.28912 -2.20788
C -24.1837 -2.46068 -2.4369
C -22.0675 -3.65492 -2.50395
C -19.9692 -5.04936 -2.50562
C -17.9853 -6.23472 -2.76011
C -15.8763 -7.2104 -1.89415
C -13.5764 -8.64938 -2.54804
C -11.4191 -9.89843 -2.66265
C -9.22474 -11.0481 -2.3658
C -7.25569 -12.4017 -1.79875
C -4.95257 -13.5061 -2.09141
C -2.79933 -14.7254 -2.49214
C -0.659391 -15.8892 -2.76061
C 1.59659 -17.2068 -2.92149
C 3.70131 -18.5298 -2.63585
C 5.77606 -19.8748 -1.75156
C 7.69389 -21.1372 -0.795306
C 9.7873 -22.2792 -0.690897
C 11.9047 -23.4899 -0.924186
C 14.0567 -24.6029 -1.49526
C 16.3332 -25.83 -1.585
C 18.4637 -27.06 -1.585
C 20.5941 -28.29 -1.585
C 22.7245 -29.52 -1.585
C 24.8549 -30.75 -1.585
C 26.9854 -31.98 -1.585
C -41.1882 9.84 -1.585
C -39.0577 8.61 -1.585
C -36.9273 7.38 -1.585
C -34.7969 6.15 -1.585
C -32.6657 4.91556 -1.5897
C -30.538 3.67721 -1.65909
C -28.4175 2.43437 -1.82198
C -26.317 1.13666 -1.94956
C -24.1696 -0.126211 -1.79706
C -22.1022 -1.39072 -1.58417
C -19.9891 -2.47488 -1.95984
C -17.7956 -3.81812 -1.91246
C -15.7069 -4.89599 -2.52148
C -13.6484 -6.19001 -1.81949
C -11.4557 -7.47205 -1.85069
C -9.19456 -8.53963 -2.54417
C -7.28213 -9.93313 -1.35976
C -5.07451 -11.1833 -1.21931
C -2.89733 -12.3922 -1.21645
C -0.857702 -13.8712 -1.24671
C 1.38787 -14.7884 -1.95005
C 3.61331 -16.1328 -1.62656
C 5.57992 -17.5424 -1.2073
C 7.70208 -18.5746 -0.542839
C 9.90312 -19.8436 -0.231772
C 12.008 -20.8812 -0.582153
C 14.165 -22.3053 -0.411291
C 16.3311 -23.4528 -1.26447
C 18.4637 -24.6 -1.585
C 20.5941 -25.83 -1.585
C 22.7245 -27.06 -1.585
C 24.8549 -28.29 -1.585
C 26.9854 -29.52 -1.585
C 29.1158 -30.75 -1.585
C -39.0577 11.07 -1.585
C -36.9273 9.84 -1.585
C -34.7969 8.61 -1.585
C -32.6659 7.37489 -1.58058
C -30.5334 6.13375 -1.55667
C -28.4038 4.89254 -1.56129
C -26.2843 3.65211 -1.63811
C -24.1495 2.30501 -1.4253
C -22.0315 1.07323 -1.1059
C -19.9487 -0.1958 -1.09513
C -17.9183 -1.24654 -1.92845
C -15.698 -2.40483 -2.69505
C -13.6074 -3.68576 -2.31682
C -11.4234 -4.90669 -1.99561
C -9.22377 -6.22212 -2.1756
C -7.18218 -7.46508 -1.54923
C -5.14844 -8.70699 -0.696535
C -2.96831 -9.98458 -0.340031
C -0.893716 -11.397 -0.382852
C 1.38642 -12.5614 -0.623026
C 3.50618 -13.858 -1.00303
C 5.73228 -14.9451 -0.722452
C 7.95358 -16.0487 -0.980294
C 9.83217 -17.3141 0.169991
C 12.0513 -18.5436 0.550312
C 14.0788 -19.6856 -0.448613
C 16.3338 -21.0296 -0.437791
C 18.4484 -22.0389 -1.45877
C 20.5941 -23.37 -1.585
C 22.7245 -24.6 -1.585
C 24.8549 -25.83 -1.585
C 26.9854 -27.06 -1.585
C 29.1158 -28.29 -1.585
C -39.0577 13.53 -1.585
C -36.9273 12.3 -1.585
C -34.7969 11.07 -1.585
C -32.6645 9.83602 -1.58095
C -30.5326 8.59554 -1.5398
C -28.4034 7.35035 -1.44601
C -26.2799 6.10013 -1.34725
C -24.1559 4.85105 -1.2741
C -21.9241 3.5012 -1.19353
C -19.9135 2.23589 -0.841372
C -17.861 1.1107 -1.30842
C -15.6938 -0.0589546 -1.72614
C -13.5803 -1.19932 -2.15175
C -11.3983 -2.46972 -2.12903
C -9.27133 -3.71485 -1.93915
C -7.17354 -4.9334 -1.83968
C -5.1362 -6.16213 -0.985152
C -3.10262 -7.33852 -0.381099
C -0.785441 -8.73055 0.0630167
C 1.42007 -10.043 0.00446185
C 3.44599 -11.3991 -0.506416
C 5.69693 -12.4687 -0.647226
C 7.86482 -13.644 -0.644321
C 9.97869 -14.8233 -0.223594
C 12.1661 -16.0283 0.0595072
C 14.2436 -17.2444 0.00775316
C 16.2125 -18.4106 -0.782948
C 18.3559 -19.6058 -0.391331
C 20.5029 -20.8631 -1.36731
C 22.7245 -22.14 -1.585
C 24.8549 -23.37 -1.585
C 26.9854 -24.6 -1.585
C 29.1158 -25.83 -1.585
C 31.2462 -27.06 -1.585
C -39.0577 15.99 -1.585
C -36.9273 14.76 -1.585
C -34.7969 13.53 -1.585
C -32.6665 12.3 -1.585
C -30.5322 11.0582 -1.5541
C -28.4019 9.81395 -1.44732
C -26.2744 8.5642 -1.29843
C -24.1487 7.30911 -1.16221
C -22.0082 6.04357 -1.0378
C -19.8821 4.80995 -0.885305
C -17.7764 3.58812 -1.00588
C -15.6691 2.38871 -1.34161
C -13.5474 1.19427 -1.69161
C -11.4094 -0.0254017 -1.92705
C -9.26687 -1.26137 -1.93728
C -7.13582 -2.49565 -1.88733
C -5.01012 -3.72725 -1.72069
C -2.87114 -4.94399 -1.1927
C -0.764525 -6.17667 -0.344093
C 1.31314 -7.37775 -0.156081
C 3.60944 -8.76974 -0.32888
C 5.62421 -10.1232 -0.594642
C 7.8915 -11.1202 -0.626327
C 10.0989 -12.3928 -0.784133
C 12.0477 -13.5155 0.201763
C 14.2938 -14.6737 0.329974
C 16.3349 -15.9697 -0.27593
C 18.5431 -17.1729 -0.290856
C 20.5994 -18.3715 -1.22869
C 22.7245 -19.68 -1.585
C 24.8549 -20.91 -1.585
C 26.9854 -22.14 -1.585
C 29.1158 -23.37 -1.585
C 31.2462 -24.6 -1.585
C 33.3766 -25.83 -1.585
C -36.9273 17.22 -1.585
C -34.7969 15.99 -1.585
C -32.6665 14.76 -1.585
C -30.5329 13.5234 -1.5702
C -28.4018 12.2792 -1.48645
C -26.273 11.0341 -1.3448
C -24.147 9.78419 -1.19538
C -22.0192 8.53454 -1.08709
C -19.891 7.29586 -1.00996
C -17.7618 6.07072 -1.02475
C -15.6443 4.84858 -1.20226
C -13.5238 3.63477 -1.4477
C -11.3982 2.41517 -1.69413
C -9.26328 1.18793 -1.83771
C -7.12457 -0.0462959 -1.86295
C -4.99206 -1.28603 -1.78835
C -2.86115 -2.52726 -1.54231
C -0.721923 -3.74968 -1.21693
C 1.50773 -5.00853 -1.20157
C 3.6426 -6.25736 -0.798495
C 5.58609 -7.60927 -1.64612
C 7.8409 -8.61289 -0.962842
C 10.0036 -9.90211 -1.05161
C 12.1289 -11.0617 -0.551057
C 14.188 -12.2753 -0.334482
C 16.3469 -13.4961 -0.335579
C 18.3196 -14.7108 -1.0205
C 20.6525 -15.9398 -1.14813
C 22.6712 -17.187 -1.52315
C 24.8549 -18.45 -1.585
C 26.9854 -19.68 -1.585
C 29.1158 -20.91 -1.585
C 31.2462 -22.14 -1.585
C 33.3766 -23.37 -1.585
C -36.9273 19.68 -1.585
C -34.7969 18.45 -1.585
C -32.6665 17.22 -1.585
C -30.5361 15.99 -1.585
C -28.4021 14.7448 -1.54214
C -26.2725 13.5019 -1.42976
C -24.1446 12.2573 -1.28611
C -22.0171 11.0136 -1.17458
C -19.8901 9.77346 -1.10862
C -17.7619 8.54278 -1.10759
C -15.6354 7.31628 -1.19203
C -13.5102 6.09155 -1.34776
C -11.3834 4.86778 -1.54221
C -9.25346 3.64019 -1.70831
C -7.11852 2.40807 -1.79883
C -4.98137 1.16797 -1.78771
C -2.84607 -0.0762404 -1.67288
C -0.711402 -1.33049 -1.45929
C 1.48733 -2.611 -1.42317
C 3.63022 -3.79783 -1.49692
C 5.56633 -5.2675 -2.23202
C 7.62364 -6.47964 -2.32241
C 10.0312 -7.40014 -1.66586
C 12.1769 -8.74879 -1.74389
C 14.1459 -9.50415 -0.528067
C 16.384 -10.7928 -0.441067
C 18.4716 -12.2488 -1.12874
C 20.5505 -13.5468 -1.52107
C 22.6855 -14.7221 -1.57512
C 24.8549 -15.99 -1.585
C 26.9854 -17.22 -1.585
C 29.1158 -18.45 -1.585
C 31.2462 -19.68 -1.585
C 33.3766 -20.91 -1.585
C 35.507 -22.14 -1.585
C -34.7969 20.91 -1.585
C -32.6665 19.68 -1.585
C -30.5361 18.45 -1.585
C -28.4035 17.212 -1.57973
C -26.2725 15.9692 -1.5098
C -24.1436 14.7269 -1.39885
C -22.0157 13.4858 -1.28801
C -19.8875 12.2468 -1.21749
C -17.7596 11.013 -1.19772
C -15.6308 9.78294 -1.23889
C -13.5026 8.555 -1.34492
C -11.3746 7.32664 -1.4798
C -9.24511 6.09715 -1.62989
C -7.11301 4.86508 -1.74405
C -4.97782 3.62757 -1.7901
C -2.84277 2.38495 -1.76122
C -0.708075 1.13855 -1.66151
C 1.42779 -0.100118 -1.59868
C 3.50041 -1.37574 -2.08642
C 5.65367 -2.58067 -2.2973
C 7.76225 -3.90268 -2.1233
C 9.82465 -5.20308 -3.05682
C 12.1377 -6.25172 -2.50661
C 14.1592 -7.4449 -2.23574
C 16.2725 -8.61891 -1.7478
C 18.4682 -9.83677 -1.6459
C 20.5963 -11.0613 -1.67502
C 22.7254 -12.2722 -1.64277
C 24.8543 -13.5137 -1.60454
C 26.9854 -14.76 -1.585
C 29.1158 -15.99 -1.585
C 31.2462 -17.22 -1.585
C 33.3766 -18.45 -1.585
C 35.507 -19.68 -1.585
C -34.7969 23.37 -1.585
C -32.6665 22.14 -1.585
C -30.5361 20.91 -1.585
C -28.4056 19.68 -1.585
C -26.2736 18.4365 -1.56631
C -24.1428 17.1948 -1.48827
C -22.0141 15.9554 -1.39797
C -19.8857 14.7172 -1.33272
C -17.7572 13.4823 -1.29332
C -15.6286 12.2496 -1.3087
C -13.4987 11.0189 -1.38089
C -11.3692 9.78871 -1.48575
C -9.23893 8.55757 -1.60457
C -7.10757 7.32534 -1.7192
C -4.97506 6.08925 -1.80757
C -2.84089 4.84878 -1.84574
C -0.706985 3.60324 -1.84696
C 1.42754 2.3589 -1.86152
C 3.57041 1.09795 -1.95956
C 5.72397 -0.18887 -2.25899
C 8.03648 -1.39865 -2.11885
C 9.76551 -2.78462 -3.32864
C 11.9343 -3.94234 -3.24596
C 14.1755 -5.03113 -3.06745
C 16.2734 -6.25636 -2.63017
C 18.4638 -7.45187 -2.25266
C 20.594 -8.62536 -1.95596
C 22.7256 -9.83347 -1.84174
C 24.8604 -11.0614 -1.70557
C 26.9854 -12.3 -1.585
C 29.1158 -13.53 -1.585
C 31.2462 -14.76 -1.585
C 33.3766 -15.99 -1.585
C 35.507 -17.22 -1.585
C 37.6375 -18.45 -1.585
C -32.6665 24.6 -1.585
C -30.5361 23.37 -1.585
C -28.4056 22.14 -1.585
C -26.274 20.9033 -1.5827
C -24.143 19.6643 -1.54576
C -22.014 18.424 -1.48313
C -19.8844 17.1856 -1.4372
C -17.7555 15.9499 -1.40088
C -15.6252 14.7158 -1.38691
C -13.4952 13.4845 -1.42867
C -11.3658 12.252 -1.51739
C -9.23541 11.0207 -1.62376
C -7.10519 9.78752 -1.7338
C -4.97269 8.55195 -1.84258
C -2.84102 7.31421 -1.92768
C -0.710046 6.07155 -1.98791
C 1.41873 4.82774 -2.05619
C 3.54288 3.5788 -2.1638
C 5.66596 2.32558 -2.3241
C 7.70191 1.05189 -2.97751
C 9.84514 -0.0787013 -3.18807
C 11.9165 -1.40853 -2.86255
C 14.1957 -2.56366 -3.47562
C 16.3062 -3.77618 -2.98178
C 18.4863 -5.01725 -2.69446
C 20.5907 -6.19638 -2.26253
C 22.7247 -7.39493 -2.02982
C 24.8602 -8.61147 -1.82937
C 26.9881 -9.83815 -1.64516
C 29.1158 -11.07 -1.585
C 31.2462 -12.3 -1.585
C 33.3766 -13.53 -1.585
C 35.507 -14.76 -1.585
C 37.6375 -15.99 -1.585
C -32.6665 27.06 -1.585
C -30.5361 25.83 -1.585
C -28.4056 24.6 -1.585
C -26.2752 23.37 -1.585
C -24.1442 22.1317 -1.58349
C -22.0132 20.8917 -1.54798
C -19.8834 19.6543 -1.5147
C -17.7544 18.4173 -1.48711
C -15.6241 17.1833 -1.47792
C -13.4945 15.9494 -1.49854
C -11.3636 14.7158 -1.57049
C -9.23368 13.4839 -1.66598
C -7.10264 12.2507 -1.76796
C -4.97152 11.017 -1.88427
C -2.8409 9.77987 -1.994
C -0.71157 8.54074 -2.10017
C 1.41417 7.29783 -2.20547
C 3.53662 6.04972 -2.34124
C 5.65217 4.79984 -2.53306
C 7.77717 3.53736 -2.7482
C 9.94948 2.27706 -2.91354
C 12.1685 1.0386 -2.41953
C 14.1563 -0.153209 -3.35949
C 16.2435 -1.34102 -3.11635
C 18.4415 -2.55781 -2.77561
C 20.5943 -3.75537 -2.5067
C 22.7248 -4.95267 -2.21689
C 24.8582 -6.16076 -1.95336
C 26.9865 -7.38082 -1.71346
C 29.1158 -8.61 -1.585
C 31.2462 -9.84 -1.585
C 33.3766 -11.07 -1.585
C 35.507 -12.3 -1.585
C 37.6375 -13.53 -1.585
C 39.7679 -14.76 -1.585
C -30.5361 28.29 -1.585
C -28.4056 27.06 -1.585
C -26.2752 25.83 -1.585
C -24.1448 24.6 -1.585
C -22.0141 23.3596 -1.59209
C -19.8838 22.1218 -1.57032
C -17.7539 20.8845 -1.55299
C -15.624 19.649 -1.54842
C -13.4934 18.4148 -1.56814
C -11.3634 17.1812 -1.62902
C -9.23303 15.9479 -1.70827
C -7.10264 14.7146 -1.8112
C -4.97181 13.4809 -1.92659
C -2.84084 12.2454 -2.05029
C -0.711468 11.0085 -2.17377
C 1.41525 9.76973 -2.30028
C 3.53613 8.52773 -2.44543
C 5.65141 7.28303 -2.5931
C 7.76277 6.03609 -2.72041
C 9.8751 4.78913 -2.68998
C 12.0313 3.60616 -2.82372
C 14.1318 2.47866 -2.79288
C 16.1203 1.01988 -2.10339
C 18.4492 -0.0945632 -2.60889
C 20.5798 -1.3008 -2.56089
C 22.7224 -2.50374 -2.34742
C 24.8557 -3.71054 -2.06284
C 26.9845 -4.92572 -1.78421
C 29.1158 -6.15 -1.585
C 31.2462 -7.38 -1.585
C 33.3766 -8.61 -1.585
C 35.507 -9.84 -1.585
C 37.6375 -11.07 -1.585
C 39.7679 -12.3 -1.585
C -28.4056 29.52 -1.585
C -26.2752 28.29 -1.585
C -24.1448 27.06 -1.585
C -22.013 25.826 -1.59294
C -19.8834 24.5892 -1.60119
C -17.7536 23.3518 -1.5917
C -15.6234 22.1163 -1.58704
C -13.4935 20.8809 -1.61245
C -11.3631 19.6467 -1.66756
C -9.23293 18.4129 -1.7429
C -7.10169 17.1787 -1.83378
C -4.9713 15.9458 -1.95116
C -2.84154 14.7114 -2.08781
C -0.711029 13.4765 -2.21699
C 1.41771 12.2399 -2.3526
C 3.54404 11.002 -2.49279
C 5.6658 9.76131 -2.61069
C 7.78271 8.51653 -2.66791
C 9.89421 7.26274 -2.61018
C 12.0385 5.99044 -2.45525
C 14.0444 4.72268 -1.87547
C 16.1626 3.53164 -1.85342
C 18.3285 2.38121 -2.3194
C 20.5561 1.14825 -2.37157
C 22.7127 -0.0504677 -2.3299
C 24.8516 -1.2564 -2.11052
C 26.9811 -2.47009 -1.83564
C 29.1131 -3.69003 -1.62377
C 31.2462 -4.92 -1.585
C 33.3766 -6.15 -1.585
C 35.507 -7.38 -1.585
C 37.6375 -8.61 -1.585
C 39.7679 -9.84 -1.585
C -26.2752 30.75 -1.585
C -24.1448 29.52 -1.585
C -22.0144 28.29 -1.585
C -19.8836 27.0565 -1.59038
C -17.7536 25.82 -1.60992
C -15.6241 24.5832 -1.61743
C -13.4927 23.347 -1.63656
C -11.3624 22.1133 -1.68238
C -9.23261 20.8788 -1.74851
C -7.10161 19.6459 -1.83565
C -4.9722 18.4115 -1.9515
C -2.84236 17.1776 -2.1007
C -0.71247 15.9436 -2.24636
C 1.41981 14.7081 -2.37924
C 3.55196 13.4735 -2.51406
C 5.68219 12.235 -2.61427
C 7.81008 10.9915 -2.64203
C 9.92672 9.73697 -2.52573
C 12.0117 8.46835 -2.13018
C 14.1275 7.19 -1.68794
C 16.1697 5.9067 -1.14099
C 18.2931 4.70677 -1.4365
C 20.4738 3.62529 -2.03843
C 22.6757 2.39568 -2.11003
C 24.8381 1.19779 -2.05093
C 26.9775 -0.0143916 -1.84523
C 29.111 -1.23149 -1.63019
C 31.2462 -2.46 -1.585
C 33.3766 -3.69 -1.585
C 35.507 -4.92 -1.585
C 37.6375 -6.15 -1.585
C 39.7679 -7.38 -1.585
C -26.2752 33.21 -1.585
C -24.1448 31.98 -1.585
C -22.0144 30.75 -1.585
C -19.8839 29.52 -1.585
C -17.7527 28.2868 -1.59454
C -15.6231 27.0502 -1.62109
C -13.4929 25.8149 -1.65175
C -11.3629 24.5797 -1.68247
C -9.23266 23.3453 -1.74189
C -7.10295 22.1117 -1.82346
C -4.97219 20.8779 -1.93063
C -2.84327 19.6451 -2.07647
C -0.714149 18.4114 -2.2313
C 1.41642 17.1779 -2.39064
C 3.54958 15.9427 -2.53328
C 5.68807 14.706 -2.64848
C 7.82586 13.4623 -2.66442
C 9.95575 12.2125 -2.54362
C 12.0579 10.9421 -2.2142
C 14.1909 9.64397 -1.74234
C 16.2213 8.35013 -0.999116
C 18.326 7.07326 -0.547109
C 20.4647 5.97037 -1.13447
C 22.6568 4.82139 -1.59517
C 24.8153 3.64678 -1.84931
C 26.9686 2.44102 -1.79703
C 29.1094 1.22732 -1.62607
C 31.2462 8.88178e-16 -1.585
C 33.3766 -1.23 -1.585
C 35.507 -2.46 -1.585
C 37.6375 -3.69 -1.585
C 39.7679 -4.92 -1.585
C 41.8983 -6.15 -1.585
C -24.1448 34.44 -1.585
C -22.0144 33.21 -1.585
C -19.8839 31.98 -1.585
C -17.7535 30.75 -1.585
C -15.623 29.5168 -1.59761
C -13.4929 28.2813 -1.63627
C -11.3628 27.0464 -1.67135
C -9.23267 25.8114 -1.715
C -7.10264 24.578 -1.78428
C -4.97341 23.3448 -1.88915
C -2.84422 22.1122 -2.01618
C -0.715928 20.8798 -2.17188
C 1.41289 19.6475 -2.34242
C 3.54305 18.4149 -2.51436
C 5.67751 17.1804 -2.66377
C 7.82056 15.9453 -2.73814
C 9.96322 14.6825 -2.67225
C 12.1032 13.4212 -2.36809
C 14.1763 12.1774 -1.71754
C 16.2002 10.8809 -0.936378
C 18.2534 9.62023 -0.252342
C 20.4238 8.41424 -0.621551
C 22.5859 7.29982 -1.26898
C 24.791 6.08792 -1.53446
C 26.9569 4.89509 -1.68292
C 29.107 3.68636 -1.6186
C 31.2462 2.46 -1.585
C 33.3766 1.23 -1.585
C 35.507 0 -1.585
C 37.6375 -1.23 -1.585
C 39.7679 -2.46 -1.585
C 41.8983 -3.69 -1.585
C -22.0144 35.67 -1.585
C -19.8839 34.44 -1.585
C -17.7535 33.21 -1.585
C -15.6231 31.98 -1.585
C -13.4913 30.7479 -1.59624
C -11.3624 29.5128 -1.6315
C -9.23243 28.2787 -1.67139
C -7.10341 27.0445 -1.72853
C -4.97304 25.8111 -1.81967
C -2.84427 24.5793 -1.93176
C -0.716208 23.3475 -2.06465
C 1.4114 22.1183 -2.22807
C 3.53662 20.8893 -2.41805
C 5.66214 19.6608 -2.6007
C 7.79016 18.4314 -2.69462
C 9.92992 17.2363 -2.67362
C 12.0924 15.9825 -2.228
C 14.3337 14.7235 -1.99366
C 16.3064 13.3934 -1.24735
C 18.3142 12.0988 -0.606919
C 20.4853 10.8612 -0.182027
C 22.6357 9.71838 -0.725783
C 24.808 8.54563 -1.22084
C 26.9515 7.34956 -1.54526
C 29.1043 6.14498 -1.59786
C 31.2462 4.92 -1.585
C 33.3766 3.69 -1.585
C 35.507 2.46 -1.585
C 37.6375 1.23 -1.585
C 39.7679 -8.88178e-16 -1.585
C 41.8983 -1.23 -1.585
C -19.8839 36.9 -1.585
C -17.7535 35.67 -1.585
C -15.6231 34.44 -1.585
C -13.4927 33.21 -1.585
C -11.3623 31.98 -1.585
C -9.23251 30.7447 -1.62642
C -7.10202 29.5105 -1.66571
C -4.97231 28.2782 -1.73431
C -2.84359 27.0451 -1.82349
C -0.715547 25.8145 -1.94184
C 1.41104 24.5852 -2.08532
C 3.53722 23.3587 -2.2615
C 5.66025 22.1359 -2.45212
C 7.78049 20.912 -2.57855
C 9.89278 19.6839 -2.49084
C 12.0469 18.4668 -2.15851
C 14.1293 17.2014 -1.52974
C 16.2299 16.0162 -1.08808
C 18.2468 14.7089 -0.687683
C 20.3468 13.3609 -0.53812
C 22.5261 12.1455 -0.787133
C 24.71 11.036 -1.2722
C 26.9464 9.80705 -1.4666
C 29.1158 8.61 -1.585
C 31.2462 7.38 -1.585
C 33.3766 6.15 -1.585
C 35.507 4.92 -1.585
C 37.6375 3.69 -1.585
C 39.7679 2.46 -1.585
C 41.8983 1.23 -1.585
C -17.7535 38.13 -1.585
C -15.6231 36.9 -1.585
C -13.4927 35.67 -1.585
C -11.3623 34.44 -1.585
C -9.23183 33.21 -1.585
C -7.10118 31.9768 -1.61269
C -4.97162 30.7435 -1.65023
C -2.84221 29.5104 -1.71665
C -0.713669 28.2783 -1.8027
C 1.41413 27.0491 -1.92036
C 3.54032 25.8233 -2.07193
C 5.66533 24.6003 -2.23185
C 7.78831 23.3791 -2.38052
C 9.90938 22.1422 -2.39872
C 12.0622 20.8733 -2.21871
C 14.0383 19.6911 -1.32147
C 16.166 18.4467 -0.785376
C 18.334 17.2667 -0.45088
C 20.3956 16.0034 -0.803623
C 22.6223 14.7201 -0.571457
C 24.7979 13.4946 -1.27865
C 26.8932 12.2728 -1.72757
C 29.1158 11.07 -1.585
C 31.2462 9.84 -1.585
C 33.3766 8.61 -1.585
C 35.507 7.38 -1.585
C 37.6375 6.15 -1.585
C 39.7679 4.92 -1.585
C 41.8983 3.69 -1.585
C -15.6231 39.36 -1.585
C -13.4927 38.13 -1.585
C -11.3623 36.9 -1.585
C -9.23183 35.67 -1.585
C -7.10141 34.44 -1.585
C -4.97099 33.21 -1.585
C -2.84074 31.9761 -1.61997
C -0.711723 30.7433 -1.66878
C 1.416 29.5117 -1.75172
C 3.54456 28.2838 -1.86755
C 5.67149 27.0581 -1.98933
C 7.79866 25.8345 -2.10893
C 9.92543 24.6112 -2.19314
C 12.0467 23.3674 -2.04567
C 14.1699 22.0978 -1.71977
C 16.1587 20.884 -1.06004
C 18.3141 19.708 -0.878567
C 20.5014 18.4529 -0.765435
C 22.5326 17.2177 -1.28472
C 24.7982 15.9052 -1.54679
C 26.9854 14.76 -1.685
C 29.1158 13.53 -1.585
C 31.2462 12.3 -1.585
C 33.3766 11.07 -1.585
C 35.507 9.84 -1.585
C 37.6375 8.61 -1.585
C 39.7679 7.38 -1.585
C 41.8983 6.15 -1.585
C -11.3623 39.36 -1.585
C -9.23183 38.13 -1.585
C -7.10141 36.9 -1.585
C -4.97099 35.67 -1.585
C -2.84056 34.44 -1.585
C -0.710141 33.21 -1.585
C 1.41972 31.9753 -1.62158
C 3.5483 30.7452 -1.68878
C 5.67619 29.5153 -1.76227
C 7.80441 28.2892 -1.83721
C 9.93166 27.0639 -1.90777
C 12.0597 25.8407 -1.92761
C 14.1789 24.6095 -1.76033
C 16.2698 23.3741 -1.43286
C 18.3855 22.0989 -1.4133
C 20.5058 20.8738 -1.32975
C 22.7093 19.673 -1.28814
C 24.8549 18.45 -1.585
C 26.9854 17.22 -1.585
C 29.1158 15.99 -1.585
C 31.2462 14.76 -1.585
C 33.3766 13.53 -1.585
C 35.507 12.3 -1.585
C 37.6375 11.07 -1.585
C 39.7679 9.84 -1.585
C -9.23183 40.59 -1.585
C -7.10141 39.36 -1.585
C -4.97099 38.13 -1.585
C -2.84056 36.9 -1.585
C -0.710141 35.67 -1.585
C 1.42028 34.44 -1.585
C 3.5507 33.21 -1.585
C 5.67958 31.9774 -1.62148
C 7.80824 30.7478 -1.64369
C 9.93729 29.5187 -1.66628
C 12.0661 28.2928 -1.69323
C 14.1943 27.066 -1.67964
C 16.3233 25.831 -1.61519
C 18.4524 24.5979 -1.53156
C 20.5796 23.3683 -1.50073
C 22.7245 22.14 -1.585
C 24.8549 20.91 -1.585
C 26.9854 19.68 -1.585
C 29.1158 18.45 -1.585
C 31.2462 17.22 -1.585
C 33.3766 15.99 -1.585
C 35.507 14.76 -1.585
C 37.6375 13.53 -1.585
C 39.7679 12.3 -1.585
C -7.10141 41.82 -1.585
C -4.97099 40.59 -1.585
C -2.84056 39.36 -1.585
C -0.710141 38.13 -1.585
C 1.42028 36.9 -1.585
C 3.5507 35.67 -1.585
C 5.68113 34.44 -1.585
C 7.81155 33.21 -1.585
C 9.94197 31.98 -1.585
C 12.0724 30.75 -1.585
C 14.2028 29.52 -1.585
C 16.3332 28.29 -1.585
C 18.4637 27.06 -1.585
C 20.5941 25.83 -1.585
C 22.7245 24.6 -1.585
C 24.8549 23.37 -1.585
C 26.9854 22.14 -1.585
C 29.1158 20.91 -1.585
C 31.2462 19.68 -1.585
C 33.3766 18.45 -1.585
C 35.507 17.22 -1.585
C 37.6375 15.99 -1.585
C 39.7679 14.76 -1.585
C -2.84056 41.82 -1.585
C -0.710141 40.59 -1.585
C 1.42028 39.36 -1.585
C 3.5507 38.13 -1.585
C 5.68113 36.9 -1.585
C 7.81155 35.67 -1.585
C 9.94197 34.44 -1.585
C 12.0724 33.21 -1.585
C 14.2028 31.98 -1.585
C 16.3332 30.75 -1.585
C 18.4637 29.52 -1.585
C 20.5941 28.29 -1.585
C 22.7245 27.06 -1.585
C 24.8549 25.83 -1.585
C 26.9854 24.6 -1.585
C 29.1158 23.37 -1.585
C 31.2462 22.14 -1.585
C 33.3766 20.91 -1.585
C 35.507 19.68 -1.585
C 37.6375 18.45 -1.585
C 1.42028 41.82 -1.585
C 3.5507 40.59 -1.585
C 5.68113 39.36 -1.585
C 7.81155 38.13 -1.585
C 9.94197 36.9 -1.585
C 12.0724 35.67 -1.585
C 14.2028 34.44 -1.585
C 16.3332 33.21 -1.585
C 18.4637 31.98 -1.585
C 20.5941 30.75 -1.585
C 22.7245 29.52 -1.585
C 24.8549 28.29 -1.585
C 26.9854 27.06 -1.585
C 29.1158 25.83 -1.585
C 31.2462 24.6 -1.585
C 33.3766 23.37 -1.585
C 35.507 22.14 -1.585
C 5.68113 41.82 -1.585
C 7.81155 40.59 -1.585
C 9.94197 39.36 -1.585
C 12.0724 38.13 -1.585
C 14.2028 36.9 -1.585
C 16.3332 35.67 -1.585
C 18.4637 34.44 -1.585
C 20.5941 33.21 -1.585
C 22.7245 31.98 -1.585
C 24.8549 30.75 -1.585
C 26.9854 29.52 -1.585
C 29.1158 28.29 -1.585
C 31.2462 27.06 -1.585
C 33.3766 25.83 -1.585
C 12.0724 40.59 -1.585
C 14.2028 39.36 -1.585
C 16.3332 38.13 -1.585
C 18.4637 36.9 -1.585
C 20.5941 35.67 -1.585
C 22.7245 34.44 -1.585
C 24.8549 33.21 -1.585
C 26.9854 31.98 -1.585
C 29.1158 30.75 -1.585
C -21.3042 -36.9 -1.585
C -29.8259 -29.52 -1.585
C -27.6955 -30.75 -1.585
C -25.5651 -31.98 -1.585
C -23.4346 -33.21 -1.585
C -21.3042 -34.44 -1.585
C -19.1738 -35.67 -1.585
C -17.0434 -36.9 -1.585
C -14.913 -38.13 -1.585
C -12.7825 -39.36 -1.585
C -10.6521 -40.59 -1.585
C -34.0868 -24.6 -1.585
C -31.9563 -25.83 -1.585
C -29.8259 -27.06 -1.585
C -27.6955 -28.29 -1.585
C -25.5651 -29.52 -1.585
C -23.4346 -30.75 -1.585
C -21.3042 -31.98 -1.585
C -19.1738 -33.21 -1.585
C -17.0434 -34.44 -1.585
C -14.913 -35.67 -1.585
C -12.7825 -36.9 -1.585
C -10.6521 -38.13 -1.585
C -8.52169 -39.36 -1.585
C -6.39127 -40.59 -1.585
C -4.26084 -41.82 -1.585
C -36.2172 -20.91 -1.585
C -34.0868 -22.14 -1.585
C -31.9563 -23.37 -1.585
C -29.8259 -24.6 -1.585
C -27.6955 -25.83 -1.585
C -25.5651 -27.06 -1.585
C -23.4346 -28.29 -1.585
C -21.3042 -29.52 -1.585
C -19.1738 -30.75 -1.585
C -17.0434 -31.98 -1.585
C -14.913 -33.21 -1.585
C -12.7825 -34.44 -1.585
C -10.6521 -35.67 -1.585
C -8.52169 -36.9 -1.585
C -6.39127 -38.13 -1.585
C -4.26084 -39.36 -1.585
C -2.13042 -40.59 -1.585
C 0 -41.82 -1.585
C -38.3476 -17.22 -1.585
C -36.2172 -18.45 -1.585
C -34.0868 -19.68 -1.585
C -31.9563 -20.91 -1.585
C -29.8259 -22.14 -1.585
C -27.6955 -23.37 -1.585
C -25.5651 -24.6 -1.585
C -23.4346 -25.83 -1.585
C -21.3042 -27.06 -1.585
C -19.1738 -28.29 -1.585
C -17.0434 -29.52 -1.585
C -14.913 -30.75 -1.585
C -12.7825 -31.98 -1.585
C -10.6521 -33.21 -1.585
C -8.52169 -34.44 -1.585
C -6.39127 -35.67 -1.585
C -4.26084 -36.9 -1.585