LAMMPS (23 Jun 2022 - Update 4)
WARNING: Using I/O redirection is unreliable with parallel runs. Better use -in switch to read input file. (../lammps.cpp:530)
Reading data file ...
  orthogonal box = (-42.60845 -42.60845 -42.60845) to (42.60845 42.60845 42.60845)
  3 by 2 by 1 MPI processor grid
  reading atoms ...
  4891 atoms
  read_data CPU = 0.008 seconds
1902 atoms in group freeze
Neighbor list info ...
  update every 1 steps, delay 0 steps, check yes
  max neighbors/atom: 2000, page size: 100000
  master list distance cutoff = 7
  ghost atom cutoff = 7
  binsize = 3.5, bins = 25 25 25
  1 neighbor lists, perpetual/occasional/extra = 1 0 0
  (1) pair mlip, perpetual
      attributes: full, newton on
      pair build: full/bin/atomonly
      stencil: full/bin/3d
      bin: standard
Setting up cg style minimization ...
  Unit style    : metal
  Current step  : 0
Per MPI rank memory allocation (min/avg/max) = 5.344 | 5.481 | 5.746 Mbytes
   Step         E_pair         TotEng          CPU      
         0  -41588.167     -41588.167      0            
        10  -41596.426     -41596.426      8.0402144    
        20  -41613.152     -41613.152      13.103896    
        30  -41701.743     -41701.743      18.620191    
        40  -41866.386     -41866.386      25.391945    
        50  -42133.003     -42133.003      30.047658    
        60  -42455.045     -42455.045      35.550049    
        70  -42775.862     -42775.862      41.520914    
        80  -43159.377     -43159.377      47.900139    
        90  -43340.599     -43340.599      56.451255    
       100  -43520.015     -43520.015      63.277698    
       110  -43692.538     -43692.538      70.956217    
       120  -43976.588     -43976.588      78.609256    
       130  -44084.979     -44084.979      86.726161    
       140  -44150.883     -44150.883      95.267516    
       150  -44204.367     -44204.367      103.42689    
       160  -44352.875     -44352.875      110.23837    
       170  -44427.329     -44427.329      118.33761    
       180  -44492.719     -44492.719      126.87194    
       190  -44548.556     -44548.556      135.45406    
       200  -44580.861     -44580.861      144.07722    
       210  -44590.654     -44590.654      152.73517    
       220  -44593.338     -44593.338      161.36042    
       230  -44594.912     -44594.912      169.99138    
       240  -44595.943     -44595.943      178.7368     
       250  -44607.645     -44607.645      187.48641    
       260  -44611.422     -44611.422      196.24845    
       270  -44613.439     -44613.439      205.03416    
       280  -44614.671     -44614.671      213.83169    
       290  -44617.74      -44617.74       222.50552    
       300  -44736.305     -44736.305      230.84981    
       310  -44925.571     -44925.571      237.76112    
       320  -45062.3       -45062.3        246.43193    
       330  -45168.125     -45168.125      255.04926    
       340  -45263.283     -45263.283      263.15206    
       350  -45316.514     -45316.514      271.7052     
       360  -45445.465     -45445.465      279.91832    
       370  -45613.425     -45613.425      288.15349    
       380  -45785.204     -45785.204      296.71535    
       390  -45905.427     -45905.427      305.36163    
       400  -46054.023     -46054.023      313.56699    
       410  -46265.642     -46265.642      319.19909    
       420  -46407.837     -46407.837      327.75165    
       430  -46475.48      -46475.48       336.32343    
       440  -46504.3       -46504.3        344.9607     
       450  -46541.492     -46541.492      353.56168    
       460  -46561.925     -46561.925      362.13448    
       470  -46585.156     -46585.156      369.91936    
       480  -46661.934     -46661.934      376.86415    
       490  -46712.167     -46712.167      385.53983    
       500  -46824.751     -46824.751      393.36505    
