Mixed graphene (30 degrees)
27182 atoms
2 atom types

-106.52112466548594 106.52112466548594 xlo xhi
-106.52112466548594 106.52112466548594 ylo yhi
-106.52112466548594 106.52112466548594 zlo zhi

Masses

1 12.0107
2 1.001

Atoms

1 1 -10.77535795226432 -106.25521012269061 1.585
2 1 -8.31535795226432 -106.25521012269061 1.585
3 1 -5.855357952264319 -106.25521012269063 1.585
4 1 -3.395357952264324 -106.25521012269061 1.585
5 1 -0.9353579522643165 -106.25521012269061 1.585
6 1 1.5246420477356843 -106.25521012269061 1.585
7 1 3.9846420477356848 -106.25521012269063 1.585
8 1 6.4446420477356785 -106.25521012269061 1.585
9 1 8.90464204773568 -106.25521012269061 1.585
10 1 11.364642047735687 -106.25521012269063 1.585
11 1 -21.84535795226431 -104.12478762938089 1.585
12 1 -19.385357952264318 -104.1247876293809 1.585
13 1 -16.925357952264324 -104.12478762938089 1.585
14 1 -14.465357952264318 -104.12478762938089 1.585
15 1 -12.005357952264317 -104.1247876293809 1.585
16 1 -9.545357952264323 -104.12478762938089 1.585
17 1 -7.085357952264322 -104.12478762938089 1.585
18 1 -4.625357952264321 -104.1247876293809 1.585
19 1 -2.165357952264313 -104.1247876293809 1.585
20 1 0.2946420477356805 -104.12478762938089 1.585
21 1 2.7546420477356817 -104.12478762938089 1.585
22 1 5.214642047735682 -104.1247876293809 1.585
23 1 7.6746420477356825 -104.1247876293809 1.585
24 1 10.134642047735683 -104.12478762938089 1.585
25 1 12.594642047735677 -104.1247876293809 1.585
26 1 15.054642047735685 -104.1247876293809 1.585
27 1 17.514642047735677 -104.12478762938089 1.585
28 1 19.97464204773568 -104.12478762938089 1.585
29 1 22.434642047735682 -104.1247876293809 1.585
30 1 -30.455357952264325 -101.99436513607118 1.585
31 1 -27.995357952264325 -101.99436513607118 1.585
32 1 -25.535357952264317 -101.99436513607118 1.585
33 1 -23.075357952264316 -101.99436513607117 1.585
34 1 -20.615357952264315 -101.99436513607118 1.585
35 1 -18.15535795226432 -101.99436513607118 1.585
36 1 -15.69535795226432 -101.99436513607117 1.585
37 1 -13.235357952264314 -101.99436513607118 1.585
38 1 -10.77535795226432 -101.99436513607118 1.585
39 1 -8.31535795226432 -101.99436513607118 1.585
40 1 -5.855357952264318 -101.99436513607118 1.585
41 1 -3.395357952264317 -101.99436513607118 1.585
42 1 -0.9353579522643163 -101.99436513607118 1.585
43 1 1.5246420477356846 -101.99436513607118 1.585
44 1 3.9846420477356785 -101.99436513607118 1.585
45 1 6.4446420477356785 -101.99436513607118 1.585
46 1 8.904642047735686 -101.99436513607118 1.585
47 1 11.364642047735673 -101.99436513607117 1.585
48 1 13.824642047735681 -101.99436513607118 1.585
49 1 16.284642047735684 -101.99436513607118 1.585
50 1 18.744642047735685 -101.99436513607118 1.585
51 1 21.204642047735685 -101.99436513607118 1.585
52 1 23.664642047735683 -101.99436513607118 1.585
53 1 26.124642047735684 -101.99436513607118 1.585
54 1 28.584642047735688 -101.99436513607118 1.585
55 1 31.04464204773568 -101.99436513607118 1.585
56 1 -36.60535795226432 -99.86394264276146 1.585
57 1 -34.14535795226433 -99.86394264276146 1.585
58 1 -31.685357952264322 -99.86394264276146 1.585
59 1 -29.22535795226432 -99.86394264276146 1.585
60 1 -26.765357952264313 -99.86394264276146 1.585
61 1 -24.305357952264313 -99.86394264276146 1.585
62 1 -21.84535795226432 -99.86394264276146 1.585
63 1 -19.385357952264318 -99.86394264276146 1.585
64 1 -16.925357952264317 -99.86394264276146 1.585
65 1 17.514642047735684 -99.86394264276146 1.585
66 1 19.974642047735685 -99.86394264276146 1.585
67 1 22.434642047735686 -99.86394264276146 1.585
68 1 24.894642047735687 -99.86394264276147 1.585
69 1 27.354642047735684 -99.86394264276146 1.585
70 1 29.814642047735685 -99.86394264276146 1.585
71 1 32.27464204773569 -99.86394264276147 1.585
72 1 34.73464204773568 -99.86394264276146 1.585
73 1 37.194642047735684 -99.86394264276146 1.585
74 1 -42.75535795226432 -97.73352014945173 1.585
75 1 -40.29535795226432 -97.73352014945173 1.585
76 1 -37.835357952264324 -97.73352014945173 1.585
77 1 -35.375357952264324 -97.73352014945173 1.585
78 1 -32.91535795226432 -97.73352014945175 1.585
79 1 -30.455357952264325 -97.73352014945173 1.585
80 1 -27.995357952264317 -97.73352014945173 1.585
81 1 28.584642047735688 -97.73352014945175 1.585
82 1 31.04464204773568 -97.73352014945173 1.585
83 1 33.504642047735686 -97.73352014945175 1.585
84 1 35.96464204773569 -97.73352014945175 1.585
85 1 38.42464204773568 -97.73352014945173 1.585
86 1 40.88464204773568 -97.73352014945175 1.585
87 1 43.34464204773569 -97.73352014945175 1.585
88 1 -46.44535795226432 -95.60309765614201 1.585
89 1 -43.985357952264316 -95.60309765614201 1.585
90 1 -41.52535795226432 -95.60309765614201 1.585
91 1 -39.06535795226432 -95.60309765614201 1.585
92 1 -36.60535795226432 -95.60309765614201 1.585
93 1 -34.14535795226433 -95.60309765614203 1.585
94 1 34.73464204773568 -95.60309765614203 1.585
95 1 37.194642047735684 -95.60309765614203 1.585
96 1 39.654642047735685 -95.60309765614203 1.585
97 1 42.114642047735686 -95.60309765614203 1.585
98 1 44.574642047735686 -95.60309765614203 1.585
99 1 47.03464204773569 -95.60309765614203 1.585
100 1 -50.135357952264314 -93.47267516283229 1.585
101 1 -47.675357952264314 -93.4726751628323 1.585
102 1 -45.21535795226431 -93.4726751628323 1.585
103 1 -42.75535795226432 -93.47267516283229 1.585
104 1 -40.29535795226432 -93.4726751628323 1.585
105 1 40.88464204773569 -93.4726751628323 1.585
106 1 43.34464204773569 -93.47267516283232 1.585
107 1 45.80464204773568 -93.4726751628323 1.585
108 1 48.264642047735684 -93.4726751628323 1.585
109 1 50.724642047735685 -93.4726751628323 1.585
110 1 -53.825357952264326 -91.34225266952258 1.585
111 1 -51.36535795226431 -91.34225266952258 1.585
112 1 -48.90535795226431 -91.34225266952258 1.585
113 1 -46.44535795226432 -91.34225266952258 1.585
114 1 -43.985357952264316 -91.34225266952258 1.585
115 1 44.574642047735686 -91.3422526695226 1.585
116 1 47.03464204773569 -91.3422526695226 1.585
117 1 49.49464204773568 -91.34225266952258 1.585
118 1 51.95464204773568 -91.34225266952258 1.585
119 1 54.41464204773569 -91.3422526695226 1.585
120 1 -57.51535795226431 -89.21183017621286 1.585
121 1 -55.05535795226432 -89.21183017621287 1.585
122 1 -52.595357952264315 -89.21183017621286 1.585
123 1 -50.135357952264314 -89.21183017621286 1.585
124 1 48.264642047735684 -89.21183017621287 1.585
125 1 50.724642047735685 -89.21183017621287 1.585
126 1 53.184642047735686 -89.21183017621287 1.585
127 1 55.64464204773569 -89.21183017621287 1.585
128 1 58.10464204773569 -89.21183017621287 1.585
129 1 -61.20535795226432 -87.08140768290315 1.585
130 1 -58.745357952264314 -87.08140768290313 1.585
131 1 -56.28535795226433 -87.08140768290315 1.585
132 1 -53.82535795226431 -87.08140768290315 1.585
133 1 51.95464204773569 -87.08140768290315 1.585
134 1 54.41464204773569 -87.08140768290315 1.585
135 1 56.87464204773568 -87.08140768290315 1.585
136 1 59.334642047735684 -87.08140768290315 1.585
137 1 61.794642047735685 -87.08140768290315 1.585
138 1 -62.435357952264326 -84.95098518959342 1.585
139 1 -59.97535795226431 -84.95098518959342 1.585
140 1 -57.515357952264324 -84.95098518959342 1.585
141 1 -55.055357952264316 -84.95098518959342 1.585
142 1 55.64464204773569 -84.95098518959342 1.585
143 1 58.10464204773569 -84.95098518959344 1.585
144 1 60.56464204773568 -84.95098518959342 1.585
145 1 63.02464204773569 -84.95098518959342 1.585
146 1 -66.12535795226432 -82.8205626962837 1.585
147 1 -63.66535795226432 -82.8205626962837 1.585
148 1 -61.205357952264315 -82.8205626962837 1.585
149 1 -58.74535795226433 -82.8205626962837 1.585
150 1 59.334642047735684 -82.82056269628372 1.585
151 1 61.79464204773569 -82.82056269628372 1.585
152 1 64.25464204773569 -82.8205626962837 1.585
153 1 66.71464204773568 -82.82056269628372 1.585
154 1 -67.35535795226433 -80.69014020297398 1.585
155 1 -64.89535795226432 -80.69014020297398 1.585
156 1 -62.43535795226431 -80.69014020297398 1.585
157 1 63.02464204773569 -80.69014020297399 1.585
158 1 65.48464204773569 -80.69014020297399 1.585
159 1 67.94464204773568 -80.69014020297399 1.585
160 1 -71.04535795226431 -78.55971770966426 1.585
161 1 -68.58535795226433 -78.55971770966426 1.585
162 1 -66.12535795226432 -78.55971770966427 1.585
163 1 64.25464204773569 -78.55971770966427 1.585
164 1 66.7146420477357 -78.55971770966427 1.585
165 1 69.17464204773569 -78.55971770966428 1.585
166 1 71.63464204773568 -78.55971770966427 1.585
167 1 -72.2753579522643 -76.42929521635455 1.585
168 1 -69.81535795226432 -76.42929521635455 1.585
169 1 -67.35535795226433 -76.42929521635455 1.585
170 1 67.94464204773568 -76.42929521635455 1.585
171 1 70.40464204773569 -76.42929521635456 1.585
172 1 72.8646420477357 -76.42929521635456 1.585
173 1 -75.96535795226431 -74.29887272304482 1.585
174 1 -73.5053579522643 -74.29887272304482 1.585
175 1 -71.04535795226433 -74.29887272304482 1.585
176 1 69.17464204773569 -74.29887272304484 1.585
177 1 71.6346420477357 -74.29887272304484 1.585
178 1 74.09464204773569 -74.29887272304484 1.585
179 1 76.5546420477357 -74.29887272304484 1.585
180 1 -77.19535795226432 -72.16845022973511 1.585
181 1 -74.73535795226431 -72.1684502297351 1.585
182 1 -72.27535795226433 -72.16845022973511 1.585
183 1 72.86464204773569 -72.16845022973513 1.585
184 1 75.3246420477357 -72.16845022973511 1.585
185 1 77.78464204773569 -72.16845022973511 1.585
186 1 -78.42535795226432 -70.03802773642539 1.585
187 1 -75.96535795226431 -70.03802773642539 1.585
188 1 -73.50535795226432 -70.03802773642539 1.585
189 1 74.09464204773569 -70.0380277364254 1.585
190 1 76.55464204773568 -70.03802773642539 1.585
191 1 79.01464204773569 -70.03802773642539 1.585
192 1 -82.11535795226432 -67.90760524311567 1.585
193 1 -79.65535795226432 -67.90760524311567 1.585
194 1 -77.1953579522643 -67.90760524311567 1.585
195 1 75.3246420477357 -67.90760524311568 1.585
196 1 77.78464204773569 -67.90760524311568 1.585
197 1 80.2446420477357 -67.90760524311568 1.585
198 1 82.70464204773569 -67.90760524311568 1.585
199 1 -83.34535795226432 -65.77718274980595 1.585
200 1 -80.88535795226431 -65.77718274980595 1.585
201 1 -78.4253579522643 -65.77718274980595 1.585
202 1 79.01464204773569 -65.77718274980596 1.585
203 1 81.47464204773568 -65.77718274980597 1.585
204 1 83.9346420477357 -65.77718274980597 1.585
205 1 -84.57535795226431 -63.64676025649622 1.585
206 1 -82.11535795226432 -63.64676025649622 1.585
207 1 -79.65535795226431 -63.64676025649622 1.585
208 1 80.24464204773568 -63.646760256496236 1.585
209 1 82.70464204773569 -63.646760256496236 1.585
210 1 85.16464204773568 -63.64676025649624 1.585
211 1 -85.80535795226432 -61.516337763186506 1.585
212 1 -83.34535795226432 -61.516337763186506 1.585
213 1 -80.8853579522643 -61.5163377631865 1.585
214 1 81.4746420477357 -61.51633776318652 1.585
215 1 83.93464204773568 -61.51633776318651 1.585
216 1 86.39464204773569 -61.51633776318651 1.585
217 1 -87.03535795226432 -59.38591526987678 1.585
218 1 -84.57535795226431 -59.38591526987678 1.585
219 1 -82.1153579522643 -59.38591526987678 1.585
220 1 82.70464204773569 -59.3859152698768 1.585
221 1 85.1646420477357 -59.385915269876804 1.585
222 1 87.62464204773569 -59.3859152698768 1.585
223 1 -88.26535795226432 -57.25549277656707 1.585
224 1 -85.80535795226432 -57.25549277656707 1.585
225 1 83.9346420477357 -57.255492776567074 1.585
226 1 86.39464204773569 -57.25549277656708 1.585
227 1 88.8546420477357 -57.25549277656708 1.585
228 1 -89.49535795226431 -55.125070283257344 1.585
229 1 -87.03535795226432 -55.12507028325735 1.585
230 1 85.16464204773568 -55.12507028325736 1.585
231 1 87.62464204773569 -55.12507028325736 1.585
232 1 90.08464204773568 -55.12507028325736 1.585
233 1 -90.72535795226432 -52.99464778994763 1.585
234 1 -88.26535795226432 -52.99464778994763 1.585
235 1 86.3946420477357 -52.99464778994764 1.585
236 1 88.85464204773568 -52.994647789947635 1.585
237 1 91.31464204773569 -52.99464778994764 1.585
238 1 -91.95535795226432 -50.864225296637905 1.585
239 1 -89.49535795226431 -50.86422529663791 1.585
240 1 87.62464204773569 -50.86422529663792 1.585
241 1 90.08464204773568 -50.864225296637926 1.585
242 1 92.54464204773569 -50.86422529663792 1.585
243 1 -93.18535795226431 -48.73380280332819 1.585
244 1 -90.72535795226432 -48.73380280332819 1.585
245 1 88.85464204773568 -48.7338028033282 1.585
246 1 91.31464204773569 -48.7338028033282 1.585
247 1 93.7746420477357 -48.73380280332821 1.585
248 1 -94.41535795226432 -46.60338031001847 1.585
249 1 -91.95535795226432 -46.60338031001847 1.585
250 1 90.0846420477357 -46.60338031001849 1.585
251 1 92.54464204773569 -46.60338031001848 1.585
252 1 95.00464204773569 -46.60338031001848 1.585
253 1 -95.64535795226432 -44.47295781670875 1.585
254 1 -93.18535795226431 -44.47295781670875 1.585
255 1 91.31464204773569 -44.472957816708764 1.585
256 1 93.7746420477357 -44.47295781670877 1.585
257 1 96.23464204773569 -44.472957816708764 1.585
258 1 -96.87535795226432 -42.342535323399034 1.585
259 1 -94.41535795226432 -42.342535323399034 1.585
260 1 -91.95535795226431 -42.34253532339903 1.585
261 1 92.54464204773569 -42.34253532339904 1.585
262 1 95.00464204773569 -42.34253532339905 1.585
263 1 97.4646420477357 -42.34253532339905 1.585
264 1 -98.10535795226431 -40.21211283008931 1.585
265 1 -95.64535795226432 -40.21211283008931 1.585
266 1 -93.18535795226431 -40.21211283008931 1.585
267 1 93.77464204773568 -40.212112830089325 1.585
268 1 96.23464204773569 -40.212112830089325 1.585
269 1 98.6946420477357 -40.212112830089325 1.585
270 1 -99.33535795226432 -38.081690336779594 1.585
271 1 -96.87535795226432 -38.081690336779594 1.585
272 1 -94.4153579522643 -38.08169033677959 1.585
273 1 95.0046420477357 -38.08169033677961 1.585
274 1 97.4646420477357 -38.0816903367796 1.585
275 1 99.92464204773569 -38.08169033677961 1.585
276 1 -98.10535795226431 -35.95126784346988 1.585
277 1 -95.6453579522643 -35.95126784346987 1.585
278 1 96.23464204773569 -35.951267843469886 1.585
279 1 98.69464204773568 -35.9512678434699 1.585
280 1 -99.33535795226432 -33.820845350160155 1.585
281 1 -96.87535795226431 -33.82084535016015 1.585
282 1 97.4646420477357 -33.820845350160184 1.585
283 1 99.92464204773569 -33.82084535016017 1.585
284 1 -100.56535795226432 -31.69042285685044 1.585
285 1 -98.1053579522643 -31.690422856850436 1.585
286 1 96.23464204773569 -31.69042285685046 1.585
287 1 98.6946420477357 -31.69042285685046 1.585
288 1 101.15464204773569 -31.69042285685045 1.585
289 1 -101.79535795226431 -29.56000036354072 1.585
290 1 -99.3353579522643 -29.560000363540716 1.585
291 1 -96.87535795226432 -29.560000363540716 1.585
292 1 97.4646420477357 -29.560000363540734 1.585
293 1 99.9246420477357 -29.560000363540738 1.585
294 1 102.3846420477357 -29.560000363540745 1.585
295 1 -100.5653579522643 -27.429577870230997 1.585
296 1 -98.10535795226433 -27.429577870231 1.585
297 1 98.6946420477357 -27.42957787023101 1.585
298 1 101.15464204773569 -27.429577870231018 1.585
299 1 -101.79535795226431 -25.299155376921277 1.585
300 1 -99.33535795226432 -25.29915537692128 1.585
301 1 99.92464204773569 -25.299155376921306 1.585
302 1 102.3846420477357 -25.299155376921295 1.585
303 1 -103.0253579522643 -23.168732883611558 1.585
304 1 -100.56535795226432 -23.16873288361156 1.585
305 1 98.69464204773568 -23.16873288361158 1.585
306 1 101.15464204773569 -23.168732883611582 1.585
307 1 103.6146420477357 -23.168732883611582 1.585
308 1 -101.79535795226433 -21.038310390301845 1.585
309 1 -99.33535795226432 -21.038310390301845 1.585
310 1 99.92464204773569 -21.038310390301856 1.585
311 1 102.3846420477357 -21.038310390301856 1.585
312 1 -103.02535795226432 -18.907887896992122 1.585
313 1 -100.56535795226432 -18.907887896992126 1.585
314 1 101.15464204773569 -18.907887896992143 1.585
315 1 103.61464204773569 -18.907887896992133 1.585
316 1 -104.25535795226432 -16.777465403682402 1.585
317 1 -101.79535795226433 -16.777465403682406 1.585
318 1 99.9246420477357 -16.777465403682424 1.585
319 1 102.3846420477357 -16.777465403682417 1.585
320 1 104.84464204773569 -16.777465403682427 1.585
321 1 -103.02535795226432 -14.647042910372685 1.585
322 1 -100.5653579522643 -14.647042910372681 1.585
323 1 101.15464204773569 -14.647042910372699 1.585
324 1 103.6146420477357 -14.647042910372708 1.585
325 1 -104.25535795226432 -12.516620417062965 1.585
326 1 -101.79535795226431 -12.51662041706296 1.585
327 1 102.3846420477357 -12.516620417062986 1.585
328 1 104.84464204773569 -12.516620417062983 1.585
329 1 -105.48535795226432 -10.386197923753246 1.585
330 1 -103.02535795226432 -10.38619792375324 1.585
331 1 101.15464204773569 -10.386197923753267 1.585
332 1 103.61464204773569 -10.386197923753262 1.585
333 1 106.0746420477357 -10.386197923753263 1.585
334 1 -104.2553579522643 -8.25577543044352 1.585
335 1 -101.79535795226433 -8.25577543044353 1.585
336 1 102.3846420477357 -8.255775430443547 1.585
337 1 104.84464204773569 -8.25577543044355 1.585
338 1 -105.48535795226431 -6.125352937133806 1.585
339 1 -103.02535795226432 -6.1253529371338145 1.585
340 1 101.15464204773569 -6.125352937133828 1.585
341 1 103.6146420477357 -6.12535293713383 1.585
342 1 106.0746420477357 -6.125352937133831 1.585
343 1 -104.25535795226432 -3.994930443824095 1.585
344 1 -101.79535795226431 -3.9949304438240905 1.585
345 1 102.3846420477357 -3.9949304438241096 1.585
346 1 104.84464204773569 -3.994930443824112 1.585
347 1 -105.48535795226432 -1.864507950514375 1.585
348 1 -103.02535795226432 -1.8645079505143705 1.585
349 1 103.61464204773569 -1.8645079505143922 1.585
350 1 106.0746420477357 -1.8645079505143873 1.585
351 1 -104.2553579522643 0.26591454279534965 1.585
352 1 -101.79535795226431 0.2659145427953481 1.585
353 1 102.3846420477357 0.2659145427953279 1.585
354 1 104.84464204773569 0.26591454279533255 1.585
355 1 -105.48535795226431 2.3963370361050695 1.585
356 1 -103.02535795226432 2.3963370361050678 1.585
357 1 103.61464204773569 2.396337036105052 1.585
358 1 106.07464204773571 2.396337036105051 1.585
359 1 -104.2553579522643 4.526759529414789 1.585
360 1 -101.79535795226431 4.526759529414793 1.585
361 1 102.38464204773568 4.526759529414773 1.585
362 1 104.8446420477357 4.526759529414771 1.585
363 1 -105.48535795226431 6.657182022724508 1.585
364 1 -103.02535795226432 6.657182022724513 1.585
365 1 101.15464204773569 6.657182022724493 1.585
366 1 103.6146420477357 6.657182022724491 1.585
367 1 106.0746420477357 6.657182022724496 1.585
368 1 -104.2553579522643 8.787604516034225 1.585
369 1 -101.79535795226431 8.78760451603423 1.585
370 1 102.3846420477357 8.787604516034211 1.585
371 1 104.8446420477357 8.78760451603421 1.585
372 1 -105.48535795226431 10.918027009343946 1.585
373 1 -103.02535795226432 10.918027009343943 1.585
374 1 101.1546420477357 10.918027009343923 1.585
375 1 103.6146420477357 10.918027009343929 1.585
376 1 106.0746420477357 10.91802700934392 1.585
377 1 -104.25535795226432 13.048449502653664 1.585
378 1 -101.79535795226431 13.048449502653662 1.585
379 1 102.3846420477357 13.048449502653648 1.585
380 1 104.84464204773569 13.04844950265364 1.585
381 1 -103.02535795226432 15.178871995963382 1.585
382 1 -100.56535795226432 15.178871995963387 1.585
383 1 101.1546420477357 15.17887199596337 1.585
384 1 103.61464204773569 15.17887199596336 1.585
385 1 -104.25535795226432 17.309294489273107 1.585
386 1 -101.79535795226431 17.309294489273107 1.585
387 1 99.9246420477357 17.30929448927309 1.585
388 1 102.38464204773568 17.30929448927308 1.585
389 1 104.8446420477357 17.309294489273086 1.585
390 1 -103.02535795226432 19.43971698258282 1.585
391 1 -100.5653579522643 19.439716982582812 1.585
392 1 101.15464204773569 19.4397169825828 1.585
393 1 103.6146420477357 19.439716982582805 1.585
394 1 -101.79535795226431 21.57013947589254 1.585
395 1 -99.33535795226432 21.570139475892535 1.585
396 1 99.92464204773569 21.57013947589252 1.585
397 1 102.3846420477357 21.570139475892525 1.585
398 1 -103.02535795226432 23.70056196920225 1.585
399 1 -100.56535795226432 23.700561969202262 1.585
400 1 98.69464204773568 23.700561969202237 1.585
401 1 101.1546420477357 23.70056196920224 1.585
402 1 103.6146420477357 23.70056196920224 1.585
403 1 -101.79535795226431 25.830984462511974 1.585
404 1 -99.3353579522643 25.830984462511974 1.585
405 1 99.9246420477357 25.83098446251196 1.585
406 1 102.3846420477357 25.83098446251196 1.585
407 1 -100.5653579522643 27.9614069558217 1.585
408 1 -98.1053579522643 27.961406955821698 1.585
409 1 98.6946420477357 27.96140695582168 1.585
410 1 101.1546420477357 27.96140695582168 1.585
411 1 -99.3353579522643 30.091829449131424 1.585
412 1 -96.87535795226431 30.091829449131417 1.585
413 1 97.4646420477357 30.0918294491314 1.585
414 1 99.9246420477357 30.091829449131396 1.585
415 1 -100.5653579522643 32.22225194244114 1.585
416 1 -98.10535795226431 32.22225194244113 1.585
417 1 96.2346420477357 32.22225194244112 1.585
418 1 98.6946420477357 32.22225194244112 1.585
419 1 101.15464204773569 32.22225194244112 1.585
420 1 -99.3353579522643 34.35267443575085 1.585
421 1 -96.87535795226431 34.352674435750856 1.585
422 1 97.4646420477357 34.35267443575084 1.585
423 1 99.9246420477357 34.352674435750835 1.585
424 1 -98.10535795226431 36.48309692906057 1.585
425 1 -95.6453579522643 36.483096929060586 1.585
426 1 96.2346420477357 36.48309692906056 1.585
427 1 98.6946420477357 36.48309692906056 1.585
428 1 -96.87535795226431 38.613519422370295 1.585
429 1 -94.4153579522643 38.61351942237029 1.585
430 1 95.0046420477357 38.61351942237028 1.585
431 1 97.4646420477357 38.613519422370274 1.585
432 1 -95.6453579522643 40.74394191568001 1.585
433 1 -93.18535795226431 40.74394191568001 1.585
434 1 93.7746420477357 40.74394191568 1.585
435 1 96.2346420477357 40.74394191568 1.585
436 1 -96.87535795226431 42.87436440898973 1.585
437 1 -94.41535795226432 42.874364408989734 1.585
438 1 -91.95535795226431 42.874364408989734 1.585
439 1 92.5446420477357 42.87436440898972 1.585
440 1 95.0046420477357 42.87436440898971 1.585
441 1 97.4646420477357 42.87436440898972 1.585
442 1 -95.6453579522643 45.00478690229945 1.585
443 1 -93.18535795226431 45.00478690229945 1.585
444 1 -90.72535795226432 45.00478690229946 1.585
445 1 91.3146420477357 45.004786902299436 1.585
446 1 93.7746420477357 45.004786902299436 1.585
447 1 96.23464204773569 45.004786902299436 1.585
448 1 -94.41535795226432 47.135209395609174 1.585
449 1 -91.95535795226431 47.13520939560917 1.585
450 1 90.0846420477357 47.13520939560915 1.585
451 1 92.54464204773569 47.13520939560915 1.585
452 1 95.0046420477357 47.13520939560916 1.585
453 1 -93.18535795226431 49.2656318889189 1.585
454 1 -90.7253579522643 49.2656318889189 1.585
455 1 88.8546420477357 49.265631888918875 1.585
456 1 91.3146420477357 49.265631888918875 1.585
457 1 93.7746420477357 49.265631888918875 1.585
458 1 -91.95535795226431 51.396054382228606 1.585
459 1 -89.4953579522643 51.396054382228606 1.585
460 1 87.6246420477357 51.39605438222859 1.585
461 1 90.0846420477357 51.39605438222859 1.585
462 1 92.54464204773569 51.3960543822286 1.585
463 1 -90.7253579522643 53.52647687553833 1.585
464 1 -88.26535795226431 53.52647687553833 1.585
465 1 86.3946420477357 53.526476875538314 1.585
466 1 88.8546420477357 53.52647687553831 1.585
467 1 91.3146420477357 53.526476875538314 1.585
468 1 -89.49535795226431 55.65689936884805 1.585
469 1 -87.0353579522643 55.656899368848045 1.585
470 1 -84.57535795226431 55.656899368848045 1.585
471 1 85.1646420477357 55.65689936884803 1.585
472 1 87.6246420477357 55.65689936884803 1.585
473 1 90.0846420477357 55.65689936884804 1.585
474 1 -88.26535795226431 57.78732186215776 1.585
475 1 -85.80535795226432 57.78732186215777 1.585
476 1 -83.34535795226431 57.78732186215777 1.585
477 1 83.93464204773571 57.787321862157754 1.585
478 1 86.3946420477357 57.78732186215775 1.585
479 1 88.8546420477357 57.787321862157754 1.585
480 1 -87.0353579522643 59.917744355467484 1.585
481 1 -84.5753579522643 59.917744355467484 1.585
482 1 -82.11535795226432 59.91774435546749 1.585
483 1 82.7046420477357 59.91774435546747 1.585
484 1 85.1646420477357 59.91774435546747 1.585
485 1 87.62464204773569 59.91774435546747 1.585
486 1 -85.8053579522643 62.04816684877721 1.585
487 1 -83.34535795226431 62.0481668487772 1.585
488 1 -80.8853579522643 62.0481668487772 1.585
489 1 81.4746420477357 62.04816684877719 1.585
490 1 83.9346420477357 62.048166848777186 1.585
491 1 86.3946420477357 62.04816684877719 1.585
492 1 -82.1153579522643 64.17858934208692 1.585
493 1 -79.65535795226431 64.17858934208691 1.585
494 1 80.2446420477357 64.17858934208691 1.585
495 1 82.7046420477357 64.1785893420869 1.585
496 1 -80.88535795226431 66.30901183539665 1.585
497 1 -78.4253579522643 66.30901183539665 1.585
498 1 76.5546420477357 66.30901183539662 1.585
499 1 79.0146420477357 66.30901183539662 1.585
500 1 81.4746420477357 66.30901183539662 1.585
501 1 -79.6553579522643 68.43943432870635 1.585
502 1 -77.1953579522643 68.43943432870635 1.585
503 1 -74.73535795226431 68.43943432870635 1.585
504 1 75.32464204773571 68.43943432870634 1.585
505 1 77.7846420477357 68.43943432870634 1.585
506 1 80.2446420477357 68.43943432870634 1.585
507 1 -78.4253579522643 70.56985682201608 1.585
508 1 -75.9653579522643 70.56985682201608 1.585
509 1 -73.5053579522643 70.56985682201606 1.585
510 1 74.0946420477357 70.56985682201606 1.585
511 1 76.5546420477357 70.56985682201606 1.585
512 1 79.0146420477357 70.56985682201606 1.585
513 1 -74.73535795226431 72.70027931532579 1.585
514 1 -72.2753579522643 72.70027931532579 1.585
515 1 70.40464204773569 72.70027931532577 1.585
516 1 72.8646420477357 72.70027931532579 1.585
517 1 75.32464204773571 72.70027931532579 1.585
518 1 -73.5053579522643 74.83070180863551 1.585
519 1 -71.0453579522643 74.83070180863551 1.585
520 1 -68.5853579522643 74.83070180863551 1.585
521 1 69.17464204773569 74.8307018086355 1.585
522 1 71.6346420477357 74.8307018086355 1.585
523 1 74.0946420477357 74.8307018086355 1.585
524 1 -72.2753579522643 76.96112430194523 1.585
525 1 -69.8153579522643 76.96112430194523 1.585
526 1 -67.3553579522643 76.96112430194523 1.585
527 1 67.9446420477357 76.9611243019452 1.585
528 1 70.4046420477357 76.96112430194522 1.585
529 1 72.8646420477357 76.96112430194522 1.585
530 1 -68.5853579522643 79.09154679525494 1.585
531 1 -66.12535795226431 79.09154679525496 1.585
532 1 -63.6653579522643 79.09154679525494 1.585
533 1 64.25464204773571 79.09154679525494 1.585
534 1 66.7146420477357 79.09154679525493 1.585
535 1 69.1746420477357 79.09154679525494 1.585
536 1 -67.3553579522643 81.22196928856467 1.585
537 1 -64.8953579522643 81.22196928856467 1.585
538 1 -62.435357952264305 81.22196928856467 1.585
539 1 60.56464204773571 81.22196928856465 1.585
540 1 63.0246420477357 81.22196928856467 1.585
541 1 65.48464204773569 81.22196928856465 1.585
542 1 67.9446420477357 81.22196928856465 1.585
543 1 -63.6653579522643 83.35239178187439 1.585
544 1 -61.2053579522643 83.35239178187439 1.585
545 1 -58.74535795226431 83.35239178187439 1.585
546 1 59.334642047735706 83.35239178187437 1.585
547 1 61.79464204773571 83.35239178187437 1.585
548 1 64.2546420477357 83.35239178187437 1.585
549 1 -62.435357952264305 85.48281427518411 1.585
550 1 -59.975357952264304 85.48281427518411 1.585
551 1 -57.5153579522643 85.4828142751841 1.585
552 1 -55.0553579522643 85.48281427518411 1.585
553 1 55.644642047735694 85.4828142751841 1.585
554 1 58.10464204773571 85.4828142751841 1.585
555 1 60.5646420477357 85.4828142751841 1.585
556 1 63.02464204773569 85.4828142751841 1.585
557 1 -58.74535795226431 87.61323676849382 1.585
558 1 -56.2853579522643 87.61323676849382 1.585
559 1 -53.8253579522643 87.61323676849382 1.585
560 1 -51.365357952264304 87.61323676849383 1.585
561 1 51.954642047735696 87.6132367684938 1.585
562 1 54.41464204773569 87.61323676849382 1.585
563 1 56.874642047735705 87.61323676849382 1.585
564 1 59.334642047735706 87.61323676849382 1.585
565 1 -55.0553579522643 89.74365926180354 1.585
566 1 -52.5953579522643 89.74365926180354 1.585
567 1 -50.1353579522643 89.74365926180354 1.585
568 1 -47.67535795226431 89.74365926180354 1.585
569 1 48.2646420477357 89.74365926180353 1.585
570 1 50.72464204773569 89.74365926180353 1.585
571 1 53.18464204773569 89.74365926180353 1.585
572 1 55.64464204773571 89.74365926180353 1.585
573 1 -51.365357952264304 91.87408175511327 1.585
574 1 -48.905357952264296 91.87408175511327 1.585
575 1 -46.445357952264295 91.87408175511325 1.585
576 1 -43.9853579522643 91.87408175511327 1.585
577 1 44.57464204773569 91.87408175511325 1.585
578 1 47.034642047735694 91.87408175511325 1.585
579 1 49.494642047735695 91.87408175511325 1.585
580 1 51.95464204773569 91.87408175511325 1.585
581 1 -47.6753579522643 94.00450424842299 1.585
582 1 -45.2153579522643 94.00450424842298 1.585
583 1 -42.7553579522643 94.00450424842298 1.585
584 1 -40.295357952264304 94.00450424842299 1.585
585 1 -37.8353579522643 94.00450424842298 1.585
586 1 38.424642047735695 94.00450424842298 1.585
587 1 40.884642047735696 94.00450424842298 1.585
588 1 43.3446420477357 94.00450424842298 1.585
589 1 45.8046420477357 94.00450424842296 1.585
590 1 48.26464204773569 94.00450424842298 1.585
591 1 -43.9853579522643 96.1349267417327 1.585
592 1 -41.5253579522643 96.1349267417327 1.585
593 1 -39.0653579522643 96.1349267417327 1.585
594 1 -36.6053579522643 96.1349267417327 1.585
595 1 -34.1453579522643 96.1349267417327 1.585
596 1 -31.685357952264294 96.1349267417327 1.585
597 1 32.2746420477357 96.1349267417327 1.585
598 1 34.734642047735704 96.1349267417327 1.585
599 1 37.194642047735705 96.1349267417327 1.585
600 1 39.6546420477357 96.13492674173268 1.585
601 1 42.1146420477357 96.13492674173268 1.585
602 1 44.5746420477357 96.13492674173268 1.585
603 1 -37.835357952264296 98.26534923504242 1.585
604 1 -35.375357952264295 98.26534923504241 1.585
605 1 -32.9153579522643 98.26534923504242 1.585
606 1 -30.455357952264297 98.26534923504242 1.585