4330
 Atoms. Timestep: 0
C -26.2752 -33.21 -1.585
C -24.1448 -34.44 -1.585
C -22.0144 -35.67 -1.585
C -19.8839 -36.9 -1.585
C -17.7535 -38.13 -1.585
C -15.6231 -39.36 -1.585
C -32.6665 -27.06 -1.585
C -30.5361 -28.29 -1.585
C -28.4056 -29.52 -1.585
C -26.2752 -30.75 -1.585
C -24.1448 -31.98 -1.585
C -22.0144 -33.21 -1.585
C -19.8839 -34.44 -1.585
C -17.7535 -35.67 -1.585
C -15.6231 -36.9 -1.585
C -13.4927 -38.13 -1.585
C -11.3623 -39.36 -1.585
C -9.23183 -40.59 -1.585
C -7.10141 -41.82 -1.585
C -34.7969 -23.37 -1.585
C -32.6665 -24.6 -1.585
C -30.5361 -25.83 -1.585
C -28.4056 -27.06 -1.585
C -26.2752 -28.29 -1.585
C -24.1448 -29.52 -1.585
C -22.0144 -30.75 -1.585
C -19.8839 -31.98 -1.585
C -17.7535 -33.21 -1.585
C -15.6231 -34.44 -1.585
C -13.4927 -35.67 -1.585
C -11.3623 -36.9 -1.585
C -9.23183 -38.13 -1.585
C -7.10141 -39.36 -1.585
C -4.97099 -40.59 -1.585
C -2.84056 -41.82 -1.585
C -36.9273 -19.68 -1.585
C -34.7969 -20.91 -1.585
C -32.6665 -22.14 -1.585
C -30.5361 -23.37 -1.585
C -28.4056 -24.6 -1.585
C -26.2752 -25.83 -1.585
C -24.1448 -27.06 -1.585
C -22.0144 -28.29 -1.585
C -19.8839 -29.52 -1.585
C -17.7535 -30.75 -1.585
C -15.6231 -31.98 -1.585
C -13.4927 -33.21 -1.585
C -11.3623 -34.44 -1.585
C -9.23183 -35.67 -1.585
C -7.10141 -36.9 -1.585
C -4.97099 -38.13 -1.585
C -2.84056 -39.36 -1.585
C -0.710141 -40.59 -1.585
C 1.42028 -41.82 -1.585
C -39.0577 -15.99 -1.585
C -36.9273 -17.22 -1.585
C -34.7969 -18.45 -1.585
C -32.6665 -19.68 -1.585
C -30.5361 -20.91 -1.585
C -28.4056 -22.14 -1.585
C -26.2752 -23.37 -1.585
C -24.1448 -24.6 -1.585
C -22.0144 -25.83 -1.585
C -19.8839 -27.06 -1.585
C -17.7535 -28.29 -1.585
C -15.6231 -29.52 -1.585
C -13.4927 -30.75 -1.585
C -11.3623 -31.98 -1.585
C -9.23183 -33.21 -1.585
C -7.10141 -34.44 -1.585
C -4.97099 -35.67 -1.585
C -2.84056 -36.9 -1.585
C -0.710141 -38.13 -1.585
C 1.42028 -39.36 -1.585
C 3.5507 -40.59 -1.585
C 5.68113 -41.82 -1.585
C -39.0577 -13.53 -1.585
C -36.9273 -14.76 -1.585
C -34.7969 -15.99 -1.585
C -32.6665 -17.22 -1.585
C -30.5361 -18.45 -1.585
C -28.4056 -19.68 -1.585
C -26.2752 -20.91 -1.585
C -24.1448 -22.14 -1.585
C -22.014 -23.37 -1.58328
C -19.8837 -24.5995 -1.5789
C -17.7538 -25.8297 -1.5818
C -15.6233 -27.0595 -1.58284
C -13.4928 -28.2896 -1.58267
C -11.3623 -29.52 -1.585
C -9.23183 -30.75 -1.585
C -7.10141 -31.98 -1.585
C -4.97099 -33.21 -1.585
C -2.84056 -34.44 -1.585
C -0.710141 -35.67 -1.585
C 1.42028 -36.9 -1.585
C 3.5507 -38.13 -1.585
C 5.68113 -39.36 -1.585
C 7.81155 -40.59 -1.585
C -41.1882 -9.84 -1.585
C -39.0577 -11.07 -1.585
C -36.9273 -12.3 -1.585
C -34.7969 -13.53 -1.585
C -32.6665 -14.76 -1.585
C -30.5361 -15.99 -1.585
C -28.4056 -17.22 -1.585
C -26.2742 -18.4492 -1.57804
C -24.1442 -19.6797 -1.57063
C -22.0137 -20.9091 -1.56344
C -19.884 -22.1391 -1.55552
C -17.7528 -23.3696 -1.55123
C -15.6227 -24.5987 -1.5504
C -13.4928 -25.8292 -1.54737
C -11.3621 -27.0587 -1.54708
C -9.23236 -28.2895 -1.56086
C -7.10147 -29.5195 -1.58333
C -4.97099 -30.75 -1.585
C -2.84056 -31.98 -1.585
C -0.710141 -33.21 -1.585
C 1.42028 -34.44 -1.585
C 3.5507 -35.67 -1.585
C 5.68113 -36.9 -1.585
C 7.81155 -38.13 -1.585
C 9.94197 -39.36 -1.585
C 12.0724 -40.59 -1.585
C -41.1882 -7.38 -1.585
C -39.0577 -8.61 -1.585
C -36.9273 -9.84 -1.585
C -34.7969 -11.07 -1.585
C -32.6665 -12.3 -1.585
C -30.5361 -13.53 -1.585
C -28.405 -14.759 -1.58234
C -26.2751 -15.9893 -1.56828
C -24.1434 -17.2198 -1.55183
C -22.0133 -18.4488 -1.53191
C -19.8834 -19.679 -1.50921
C -17.7527 -20.9083 -1.49959
C -15.6228 -22.1389 -1.49247
C -13.4925 -23.3685 -1.4972
C -11.3631 -24.5988 -1.50023
C -9.23172 -25.8296 -1.50973
C -7.10134 -27.0587 -1.53752
C -4.9715 -28.2892 -1.56079
C -2.8405 -29.5187 -1.5783
C -0.710141 -30.75 -1.585
C 1.42028 -31.98 -1.585
C 3.5507 -33.21 -1.585
C 5.68113 -34.44 -1.585
C 7.81155 -35.67 -1.585
C 9.94197 -36.9 -1.585
C 12.0724 -38.13 -1.585
C 14.2028 -39.36 -1.585
C -41.1882 -4.92 -1.585
C -39.0577 -6.15 -1.585
C -36.9273 -7.38 -1.585
C -34.7969 -8.61 -1.585
C -32.6665 -9.84 -1.585
C -30.5354 -11.0701 -1.58868
C -28.4051 -12.2997 -1.5758
C -26.274 -13.5293 -1.55333
C -24.1436 -14.759 -1.53107
C -22.0135 -15.9889 -1.49297
C -19.8837 -17.219 -1.46267
C -17.7535 -18.4489 -1.44072
C -15.6228 -19.6791 -1.42931
C -13.4926 -20.9093 -1.42756
C -11.3624 -22.1389 -1.43507
C -9.23215 -23.3687 -1.45507
C -7.102 -24.5989 -1.47145
C -4.97177 -25.8293 -1.50234
C -2.84164 -27.059 -1.53408
C -0.710503 -28.2894 -1.55946
C 1.42002 -29.5196 -1.5801
C 3.5507 -30.75 -1.585
C 5.68113 -31.98 -1.585
C 7.81155 -33.21 -1.585
C 9.94197 -34.44 -1.585
C 12.0724 -35.67 -1.585
C 14.2028 -36.9 -1.585
C 16.3332 -38.13 -1.585
C -41.1882 -2.46 -1.585
C -39.0577 -3.69 -1.585
C -36.9273 -4.92 -1.585
C -34.7969 -6.15 -1.585
C -32.6659 -7.38002 -1.59145
C -30.5353 -8.61007 -1.58552
C -28.4048 -9.83977 -1.55862
C -26.2746 -11.0698 -1.52983
C -24.1436 -12.2992 -1.4993
C -22.0136 -13.529 -1.45742
C -19.8834 -14.7598 -1.40883
C -17.7534 -15.9892 -1.37771
C -15.6232 -17.2191 -1.36465
C -13.4932 -18.4492 -1.34999
C -11.3634 -19.6794 -1.354
C -9.23223 -20.9091 -1.37822
C -7.10218 -22.1391 -1.40183
C -4.97193 -23.3698 -1.42398
C -2.84169 -24.5995 -1.45627
C -0.711551 -25.8294 -1.50073
C 1.41913 -27.0593 -1.53818
C 3.54943 -28.2896 -1.56852
C 5.68087 -29.5202 -1.58592
C 7.81155 -30.75 -1.585
C 9.94197 -31.98 -1.585
C 12.0724 -33.21 -1.585
C 14.2028 -34.44 -1.585
C 16.3332 -35.67 -1.585
C 18.4637 -36.9 -1.585
C -41.1882 1.77636e-15 -1.585
C -39.0577 -1.23 -1.585
C -36.9273 -2.46 -1.585
C -34.7969 -3.69 -1.585
C -32.6669 -4.92028 -1.58782
C -30.5353 -6.14978 -1.58434
C -28.4051 -7.3799 -1.55363
C -26.2739 -8.61039 -1.50713
C -24.1436 -9.83918 -1.46562
C -22.014 -11.0693 -1.41749
C -19.8838 -12.2986 -1.3622
C -17.7545 -13.5293 -1.32092
C -15.6233 -14.7592 -1.30856
C -13.4932 -15.9892 -1.29349
C -11.3626 -17.2201 -1.27605
C -9.23207 -18.4491 -1.28899
C -7.10212 -19.6796 -1.31909
C -4.97193 -20.9091 -1.3482
C -2.84264 -22.1398 -1.37944
C -0.711403 -23.3702 -1.42751
C 1.41877 -24.5994 -1.47576
C 3.54897 -25.8299 -1.51283
C 5.68003 -27.0593 -1.54811
C 7.81049 -28.2901 -1.57461
C 9.94197 -29.52 -1.585
C 12.0724 -30.75 -1.585
C 14.2028 -31.98 -1.585
C 16.3332 -33.21 -1.585
C 18.4637 -34.44 -1.585
C 20.5941 -35.67 -1.585
C -41.1882 2.46 -1.585
C -39.0577 1.23 -1.585
C -36.9273 8.88178e-16 -1.585
C -34.7969 -1.23 -1.585
C -32.6655 -2.46067 -1.58969
C -30.5349 -3.68981 -1.58079
C -28.4047 -4.91992 -1.54651
C -26.274 -6.14927 -1.50183
C -24.1442 -7.37942 -1.44593
C -22.0137 -8.60898 -1.39927
C -19.8846 -9.83872 -1.34358
C -17.7537 -11.0692 -1.2885
C -15.6232 -12.2984 -1.26154
C -13.4932 -13.529 -1.24314
C -11.3625 -14.7585 -1.23062
C -9.2327 -15.9893 -1.22689
C -7.10144 -17.2198 -1.25321
C -4.97172 -18.4491 -1.28363
C -2.84155 -19.6797 -1.31156
C -0.711333 -20.9092 -1.35813
C 1.41856 -22.1398 -1.40615
C 3.5486 -23.3693 -1.45954
C 5.67821 -24.5998 -1.50627
C 7.80993 -25.8306 -1.54922
C 9.94098 -27.0601 -1.57858
C 12.0724 -28.29 -1.585
C 14.2028 -29.52 -1.585
C 16.3332 -30.75 -1.585
C 18.4637 -31.98 -1.585
C 20.5941 -33.21 -1.585
C 22.7245 -34.44 -1.585
C -41.1882 4.92 -1.585
C -39.0577 3.69 -1.585
C -36.9273 2.46 -1.585
C -34.7969 1.23 -1.585
C -32.6661 -3.61154e-05 -1.59418
C -30.5353 -1.22991 -1.58029
C -28.4052 -2.46023 -1.54675
C -26.2747 -3.68968 -1.50212
C -24.144 -4.91951 -1.44715
C -22.0139 -6.14922 -1.39209
C -19.8838 -7.37862 -1.33623
C -17.7537 -8.60838 -1.28698
C -15.6235 -9.83815 -1.23742
C -13.4931 -11.0685 -1.21062
C -11.3627 -12.2985 -1.19564
C -9.23187 -13.5286 -1.19187
C -7.10153 -14.7587 -1.21086
C -4.9713 -15.9889 -1.23165
C -2.84137 -17.2192 -1.26337
C -0.711284 -18.4494 -1.30167
C 1.41896 -19.6799 -1.35036
C 3.54869 -20.9102 -1.40214
C 5.67864 -22.1399 -1.4595
C 7.8084 -23.37 -1.5207
C 9.93881 -24.6003 -1.55783
C 12.0699 -25.831 -1.58048
C 14.2028 -27.06 -1.585
C 16.3332 -28.29 -1.585
C 18.4637 -29.52 -1.585
C 20.5941 -30.75 -1.585
C 22.7245 -31.98 -1.585
C 24.8549 -33.21 -1.585
C -41.1882 7.38 -1.585
C -39.0577 6.15 -1.585
C -36.9273 4.92 -1.585
C -34.7969 3.69 -1.585
C -32.6661 2.45993 -1.5959
C -30.5356 1.22995 -1.58929
C -28.405 -0.00049882 -1.54724
C -26.2747 -1.22974 -1.50123
C -24.1444 -2.45936 -1.45612
C -22.0143 -3.68861 -1.39489
C -19.8847 -4.91829 -1.33731
C -17.7534 -6.14813 -1.28994
C -15.6233 -7.37768 -1.24139
C -13.4929 -8.60789 -1.19679
C -11.3623 -9.83757 -1.1693
C -9.2319 -11.0679 -1.16901
C -7.10107 -12.298 -1.18407
C -4.97097 -13.5281 -1.20338
C -2.84005 -14.7592 -1.22396
C -0.71021 -15.989 -1.25971
C 1.41938 -17.2193 -1.30764
C 3.5491 -18.4496 -1.35047
C 5.67814 -19.68 -1.4074
C 7.80811 -20.91 -1.47748
C 9.93758 -22.1404 -1.53142
C 12.0681 -23.3718 -1.56084
C 14.1995 -24.6014 -1.57929
C 16.3332 -25.83 -1.585
C 18.4637 -27.06 -1.585
C 20.5941 -28.29 -1.585
C 22.7245 -29.52 -1.585
C 24.8549 -30.75 -1.585
C 26.9854 -31.98 -1.585
C -41.1882 9.84 -1.585
C -39.0577 8.61 -1.585
C -36.9273 7.38 -1.585
C -34.7969 6.15 -1.585
C -32.6656 4.92051 -1.59562
C -30.5356 3.68983 -1.59411
C -28.4051 2.46071 -1.55942
C -26.2757 1.23039 -1.5126
C -24.1443 0.000307073 -1.47657
C -22.0141 -1.22878 -1.42378
C -19.8839 -2.45842 -1.35351
C -17.7532 -3.68698 -1.29982
C -15.623 -4.91728 -1.25751
C -13.4924 -6.14649 -1.2173
C -11.3626 -7.37668 -1.18148
C -9.23082 -8.6074 -1.16984
C -7.10035 -9.83679 -1.18065
C -4.97028 -11.0674 -1.19365
C -2.83951 -12.2971 -1.20871
C -0.71005 -13.5282 -1.23801
C 1.42001 -14.7586 -1.28968
C 3.54934 -15.9891 -1.33266
C 5.6798 -17.22 -1.36958
C 7.80908 -18.4493 -1.43026
C 9.93753 -19.6802 -1.494
C 12.0669 -20.9103 -1.53745
C 14.1956 -22.1421 -1.56668
C 16.3279 -23.3729 -1.58992
C 18.4637 -24.6 -1.585
C 20.5941 -25.83 -1.585
C 22.7245 -27.06 -1.585
C 24.8549 -28.29 -1.585
C 26.9854 -29.52 -1.585
C 29.1158 -30.75 -1.585
C -39.0577 11.07 -1.585
C -36.9273 9.84 -1.585
C -34.7969 8.61 -1.585
C -32.6671 7.38018 -1.59816
C -30.5353 6.1497 -1.60886
C -28.4054 4.92039 -1.58542
C -26.2747 3.69034 -1.53908
C -24.1442 2.46105 -1.50348
C -22.014 1.23091 -1.45839
C -19.8835 0.00216453 -1.4045
C -17.7538 -1.22748 -1.34584
C -15.6221 -2.45763 -1.30504
C -13.4919 -3.68638 -1.26688
C -11.3614 -4.91609 -1.22752
C -9.23041 -6.14544 -1.21009
C -7.10016 -7.37614 -1.20895
C -4.96975 -8.60631 -1.22704
C -2.84032 -9.83683 -1.24091
C -0.708989 -11.0678 -1.25722
C 1.42088 -12.2974 -1.29433
C 3.55011 -13.5284 -1.33313
C 5.68018 -14.7582 -1.37138
C 7.80916 -15.989 -1.41227
C 9.93856 -17.2197 -1.47534
C 12.0664 -18.4498 -1.52736
C 14.1954 -19.6814 -1.55923
C 16.324 -20.9131 -1.5832
C 18.4554 -22.1454 -1.57326
C 20.5941 -23.37 -1.585
C 22.7245 -24.6 -1.585
C 24.8549 -25.83 -1.585
C 26.9854 -27.06 -1.585
C 29.1158 -28.29 -1.585
C -39.0577 13.53 -1.585
C -36.9273 12.3 -1.585
C -34.7969 11.07 -1.585
C -32.666 9.83995 -1.60113
C -30.5357 8.6098 -1.62093
C -28.4051 7.38003 -1.60675
C -26.2748 6.15014 -1.57793
C -24.1444 4.92049 -1.53824
C -22.0137 3.69041 -1.50206
C -19.8835 2.46082 -1.45785
C -17.7526 1.23184 -1.41192
C -15.6222 0.00233373 -1.37759
C -13.4917 -1.22685 -1.33629
C -11.3613 -2.45642 -1.30457
C -9.23078 -3.68597 -1.28362
C -7.09978 -4.91626 -1.27773
C -4.96962 -6.14655 -1.28569
C -2.83948 -7.37666 -1.29985
C -0.709567 -8.60708 -1.32015
C 1.42051 -9.83724 -1.33341
C 3.55023 -11.0681 -1.36192
C 5.67981 -12.2983 -1.39415
C 7.80995 -13.5286 -1.42765
C 9.93901 -14.7591 -1.4763
C 12.0678 -15.9894 -1.5227
C 14.1958 -17.2202 -1.56732
C 16.3232 -18.452 -1.58892
C 18.4502 -19.6854 -1.5795
C 20.5821 -20.9192 -1.56275
C 22.7245 -22.14 -1.885
C 24.8549 -23.37 -1.585
C 26.9854 -24.6 -1.585
C 29.1158 -25.83 -1.585
C 31.2462 -27.06 -1.585
C -39.0577 15.99 -1.585
C -36.9273 14.76 -1.585
C -34.7969 13.53 -1.585
C -32.6665 12.3 -1.585
C -30.5358 11.0701 -1.6163
C -28.4056 9.84 -1.62146
C -26.2742 8.60958 -1.60181
C -24.1439 7.38023 -1.57405
C -22.0136 6.15006 -1.54323
C -19.8831 4.92078 -1.50404
C -17.753 3.69096 -1.47273
C -15.6219 2.46147 -1.44954
C -13.4915 1.23222 -1.42011
C -11.3606 0.00238319 -1.3861
C -9.23026 -1.22669 -1.36918
C -7.10018 -2.45681 -1.36991
C -4.96991 -3.68657 -1.3653
C -2.84032 -4.91697 -1.37389
C -0.709755 -6.14743 -1.39383
C 1.42008 -7.37765 -1.40602
C 3.55034 -8.60818 -1.41288
C 5.68033 -9.83804 -1.42962
C 7.80985 -11.0686 -1.46056
C 9.93979 -12.2988 -1.49191
C 12.0687 -13.5293 -1.52914
C 14.1984 -14.7603 -1.5675
C 16.3264 -15.9909 -1.599
C 18.4524 -17.2229 -1.60727
C 20.5745 -18.4623 -1.59412
C 22.7245 -19.68 -1.885
C 24.8549 -20.91 -1.885
C 26.9854 -22.14 -1.585
C 29.1158 -23.37 -1.585
C 31.2462 -24.6 -1.585
C 33.3766 -25.83 -1.585
C -36.9273 17.22 -1.585
C -34.7969 15.99 -1.585
C -32.6665 14.76 -1.585
C -30.5357 13.5302 -1.60359
C -28.4054 12.2999 -1.61781
C -26.2743 11.0707 -1.61289
C -24.1442 9.83999 -1.59859
C -22.0135 8.61009 -1.5881
C -19.8836 7.38005 -1.56351
C -17.752 6.14987 -1.53239
C -15.6215 4.92128 -1.51534
C -13.4915 3.69143 -1.49764
C -11.3606 2.46283 -1.47231
C -9.23104 1.23251 -1.4596
C -7.10048 0.00176788 -1.47173
C -4.97047 -1.22816 -1.47407
C -2.83958 -2.4581 -1.46401
C -0.709391 -3.68733 -1.47268
C 1.42004 -4.91832 -1.48824
C 3.5501 -6.14778 -1.49182
C 5.67937 -7.37829 -1.49441
C 7.81037 -8.6093 -1.5134
C 9.94038 -9.83915 -1.5324
C 12.0705 -11.0698 -1.54489
C 14.2011 -12.2998 -1.56836
C 16.3307 -13.5322 -1.59808
C 18.4612 -14.7649 -1.6266
C 20.5923 -16.0009 -1.62974
C 22.7321 -17.2345 -1.586
C 24.8549 -18.45 -1.585
C 26.9854 -19.68 -1.585
C 29.1158 -20.91 -1.585
C 31.2462 -22.14 -1.585
C 33.3766 -23.37 -1.585
C -36.9273 19.68 -1.585
C -34.7969 18.45 -1.585
C -32.6665 17.22 -1.585
C -30.5361 15.99 -1.585
C -28.4056 14.76 -1.61652
C -26.2754 13.5302 -1.62895
C -24.1439 12.2997 -1.62505
C -22.0134 11.0699 -1.62162
C -19.8832 9.83975 -1.61149
C -17.7524 8.61025 -1.60123
C -15.6221 7.38035 -1.58512
C -13.4914 6.15049 -1.58342
C -11.3618 4.9211 -1.57321
C -9.23054 3.69108 -1.55983
C -7.10049 2.46138 -1.57074
C -4.97095 1.23032 -1.58129
C -2.8404 0.00110491 -1.58282
C -0.710683 -1.22907 -1.57964
C 1.42008 -2.45993 -1.59291
C 3.54957 -3.68933 -1.59544
C 5.68003 -4.91928 -1.58403
C 7.81036 -6.14901 -1.5867
C 9.94046 -7.37984 -1.58828
C 12.0708 -8.60985 -1.59419
C 14.2009 -9.8407 -1.59867
C 16.3324 -11.0725 -1.61274
C 18.4627 -12.3041 -1.62926
C 20.5934 -13.5365 -1.63286
C 22.7238 -14.7658 -1.61288
C 24.8549 -15.99 -1.585
C 26.9854 -17.22 -1.585
C 29.1158 -18.45 -1.585
C 31.2462 -19.68 -1.585
C 33.3766 -20.91 -1.585
C 35.507 -22.14 -1.585
C -34.7969 20.91 -1.585
C -32.6665 19.68 -1.585
C -30.5361 18.45 -1.585
C -28.4054 17.2192 -1.60273
C -26.275 15.9898 -1.63394
C -24.1446 14.7599 -1.65233
C -22.0141 13.5299 -1.64789
C -19.8839 12.2994 -1.64727
C -17.7531 11.0695 -1.65155
C -15.6223 9.83952 -1.65284
C -13.492 8.60952 -1.65964
C -11.3617 7.37984 -1.66264
C -9.23166 6.14974 -1.66956
C -7.10149 4.91976 -1.67257
C -4.97143 3.68871 -1.68808
C -2.84166 2.45854 -1.69789
C -0.710896 1.22878 -1.70033
C 1.41906 -0.00142252 -1.7095
C 3.5493 -1.23113 -1.70427
C 5.67942 -2.46096 -1.69433
C 7.80981 -3.6906 -1.6768
C 9.94054 -4.92097 -1.66566
C 12.071 -6.15141 -1.65323
C 14.2018 -7.38137 -1.64714
C 16.3323 -8.61213 -1.64885
C 18.4627 -9.84311 -1.63883
C 20.5927 -11.0746 -1.63489
C 22.7234 -12.3041 -1.62769
C 24.8544 -13.5316 -1.60092
C 26.9854 -14.76 -1.585
C 29.1158 -15.99 -1.585
C 31.2462 -17.22 -1.585
C 33.3766 -18.45 -1.585
C 35.507 -19.68 -1.585
C -34.7969 23.37 -1.585
C -32.6665 22.14 -1.585
C -30.5361 20.91 -1.585
C -28.4056 19.68 -1.585
C -26.276 18.4498 -1.62249
C -24.1447 17.2198 -1.65951
C -22.0143 15.9899 -1.67116
C -19.8836 14.7591 -1.66645
C -17.753 13.5297 -1.67523
C -15.623 12.2993 -1.69751
C -13.4925 11.0697 -1.71533
C -11.3627 9.83935 -1.73271
C -9.23184 8.60866 -1.75222
C -7.10191 7.37862 -1.76848
C -4.97196 6.14771 -1.78307
C -2.84182 4.91767 -1.79403
C -0.712036 3.68708 -1.80809
C 1.41856 2.45719 -1.81645
C 3.54868 1.22727 -1.81319
C 5.67982 -0.00278494 -1.79526
C 7.81027 -1.23185 -1.77323
C 9.94052 -2.46195 -1.74924
C 12.0711 -3.69139 -1.71739
C 14.2012 -4.92189 -1.69757
C 16.3324 -6.15217 -1.68954
C 18.4627 -7.38271 -1.66993
C 20.5936 -8.61373 -1.64003
C 22.7239 -9.8428 -1.62547
C 24.854 -11.0717 -1.61289
C 26.9854 -12.3 -1.585
C 29.1158 -13.53 -1.585
C 31.2462 -14.76 -1.585
C 33.3766 -15.99 -1.585
C 35.507 -17.22 -1.585
C 37.6375 -18.45 -1.585
C -32.6665 24.6 -1.585
C -30.5361 23.37 -1.585
C -28.4056 22.14 -1.585
C -26.2745 20.9095 -1.60053
C -24.1443 19.6807 -1.64252
C -22.0143 18.4498 -1.66961
C -19.8838 17.2203 -1.68325
C -17.7541 15.9896 -1.69623
C -15.6229 14.7589 -1.72798
C -13.4928 13.5295 -1.75802
C -11.3624 12.2992 -1.77723
C -9.23174 11.0697 -1.8042
C -7.10215 9.8383 -1.83421
C -4.97228 8.60783 -1.86555
C -2.84295 7.37686 -1.88563
C -0.711728 6.14585 -1.89952
C 1.41861 4.91654 -1.90885
C 3.54883 3.68656 -1.90183
C 5.68002 2.45772 -1.88365
C 7.81017 1.22726 -1.85972
C 9.94089 -0.00258663 -1.83895
C 12.0707 -1.2325 -1.80266
C 14.2022 -2.46273 -1.75887
C 16.3328 -3.6918 -1.72974
C 18.4628 -4.92239 -1.69944
C 20.5936 -6.15169 -1.66431
C 22.7233 -7.38209 -1.63463
C 24.8545 -8.61162 -1.62574
C 26.9847 -9.84014 -1.60211
C 29.1158 -11.07 -1.585
C 31.2462 -12.3 -1.585
C 33.3766 -13.53 -1.585
C 35.507 -14.76 -1.585
C 37.6375 -15.99 -1.585
C -32.6665 27.06 -1.585
C -30.5361 25.83 -1.585
C -28.4056 24.6 -1.585
C -26.2752 23.37 -1.585
C -24.1446 22.1403 -1.61581
C -22.0139 20.9096 -1.65533
C -19.884 19.6797 -1.68137
C -17.7534 18.4497 -1.70485
C -15.6232 17.2198 -1.74507
C -13.4931 15.9895 -1.77812
C -11.363 14.7595 -1.81401
C -9.23289 13.5293 -1.84694
C -7.10188 12.2983 -1.88374
C -4.9721 11.0677 -1.92005
C -2.84229 9.83704 -1.94928
C -0.712102 8.60672 -1.97689
C 1.41819 7.37629 -1.98274
C 3.54875 6.14637 -1.98409
C 5.67914 4.91672 -1.96972
C 7.81085 3.68652 -1.94331
C 9.94141 2.45684 -1.91475
C 12.0717 1.227 -1.87642
C 14.2023 -0.00246341 -1.83457
C 16.3325 -1.2321 -1.77976
C 18.4629 -2.46229 -1.73821
C 20.5929 -3.69175 -1.69725
C 22.7239 -4.92161 -1.65889
C 24.8543 -6.15099 -1.63972
C 26.9848 -7.38023 -1.61184
C 29.1158 -8.61 -1.585
C 31.2462 -9.84 -1.585
C 33.3766 -11.07 -1.585
C 35.507 -12.3 -1.585
C 37.6375 -13.53 -1.585
C 39.7679 -14.76 -1.585
C -30.5361 28.29 -1.585
C -28.4056 27.06 -1.585
C -26.2752 25.83 -1.585
C -24.1448 24.6 -1.585
C -22.014 23.3698 -1.6261
C -19.8837 22.1398 -1.65681
C -17.7537 20.9095 -1.6923
C -15.6232 19.6797 -1.73586
C -13.493 18.4496 -1.77902
C -11.3627 17.2189 -1.81777
C -9.23244 15.9893 -1.86392
C -7.10255 14.759 -1.91608
C -4.97232 13.5285 -1.94904
C -2.84258 12.2975 -1.98332
C -0.712085 11.0671 -2.01757
C 1.41846 9.83665 -2.03649
C 3.549 8.60612 -2.03811
C 5.67993 7.37662 -2.03157
C 7.81061 6.14664 -2.01692
C 9.94128 4.91709 -1.97499
C 12.0714 3.6869 -1.93154
C 14.2024 2.4573 -1.88812
C 16.3328 1.22769 -1.83399
C 18.4629 -0.00229983 -1.77501
C 20.5932 -1.23159 -1.72303
C 22.7235 -2.46132 -1.68582
C 24.854 -3.69076 -1.65167
C 26.9845 -4.92018 -1.6228
C 29.1158 -6.15 -1.585
C 31.2462 -7.38 -1.585
C 33.3766 -8.61 -1.585
C 35.507 -9.84 -1.585
C 37.6375 -11.07 -1.585
C 39.7679 -12.3 -1.585
C -28.4056 29.52 -1.585
C -26.2752 28.29 -1.585
C -24.1448 27.06 -1.585
C -22.0141 25.8302 -1.59546
C -19.8841 24.5998 -1.63024
C -17.7527 23.369 -1.66189
C -15.6225 22.1399 -1.7051
C -13.4928 20.9097 -1.75176
C -11.3623 19.6803 -1.7936
C -9.23294 18.4496 -1.84698
C -7.10244 17.2195 -1.91561
C -4.97238 15.9892 -1.96359
C -2.84137 14.7581 -1.98842
C -0.710926 13.5286 -2.02059
C 1.41889 12.2978 -2.05185
C 3.54948 11.0682 -2.06102
C 5.6794 9.83746 -2.06134
C 7.81115 8.60708 -2.05943
C 9.94178 7.37733 -2.02674
C 12.0725 6.14713 -1.96638
C 14.2031 4.91827 -1.91335
C 16.333 3.68794 -1.86472
C 18.4631 2.45889 -1.80584
C 20.5924 1.22877 -1.74819
C 22.7238 -0.00145977 -1.70603
C 24.8542 -1.23055 -1.66601
C 26.9844 -2.46037 -1.62464
C 29.1158 -3.68883 -1.59272
C 31.2462 -4.92 -1.585
C 33.3766 -6.15 -1.585
C 35.507 -7.38 -1.585
C 37.6375 -8.61 -1.585
C 39.7679 -9.84 -1.585
C -26.2752 30.75 -1.585
C -24.1448 29.52 -1.585
C -22.0144 28.29 -1.585
C -19.8837 27.0597 -1.59197
C -17.7528 25.8303 -1.63159
C -15.6228 24.5997 -1.66997
C -13.4923 23.37 -1.72268
C -11.3629 22.1402 -1.76952
C -9.23183 20.9096 -1.81508
C -7.10174 19.6803 -1.88121
C -4.97201 18.4497 -1.93943
C -2.84129 17.2201 -1.98166
C -0.71115 15.9893 -2.01001
C 1.41998 14.7589 -2.04787
C 3.54977 13.5292 -2.06754
C 5.68077 12.2985 -2.06533
C 7.81176 11.0687 -2.0652
C 9.94213 9.83801 -2.04249
C 12.0729 8.60867 -1.99731
C 14.2027 7.37845 -1.93649
C 16.334 6.14817 -1.88773
C 18.4635 4.91901 -1.83179
C 20.5935 3.68901 -1.76762
C 22.724 2.45967 -1.72035
C 24.8541 1.22935 -1.67399
C 26.9847 0.000250661 -1.63306
C 29.1145 -1.2298 -1.59394
C 31.2462 -2.46 -1.585
C 33.3766 -3.69 -1.585
C 35.507 -4.92 -1.585
C 37.6375 -6.15 -1.585
C 39.7679 -7.38 -1.585
C -26.2752 33.21 -1.585
C -24.1448 31.98 -1.585
C -22.0144 30.75 -1.585
C -19.8839 29.52 -1.585
C -17.7538 28.2899 -1.59574
C -15.6228 27.0596 -1.63686
C -13.4924 25.8297 -1.68534
C -11.3622 24.6001 -1.73246
C -9.23209 23.3702 -1.78529
C -7.1019 22.1402 -1.83366
C -4.9717 20.9098 -1.89235
C -2.84144 19.6798 -1.94331
C -0.710448 18.4499 -1.98275
C 1.42005 17.22 -2.02274
C 3.55059 15.9899 -2.04501
C 5.68103 14.7597 -2.05596
C 7.81158 13.5294 -2.04745
C 9.94244 12.2987 -2.03208
C 12.0728 11.0685 -1.99716
C 14.2036 9.83874 -1.94794
C 16.334 8.60889 -1.90063
C 18.4639 7.37914 -1.841
C 20.5937 6.14917 -1.7846
C 22.7238 4.91935 -1.73
C 24.8545 3.68919 -1.68464
C 26.9848 2.45903 -1.63826
C 29.1157 1.22991 -1.59302
C 31.2462 8.88178e-16 -1.585
C 33.3766 -1.23 -1.585
C 35.507 -2.46 -1.585
C 37.6375 -3.69 -1.585
C 39.7679 -4.92 -1.585
C 41.8983 -6.15 -1.585
C -24.1448 34.44 -1.585
C -22.0144 33.21 -1.585
C -19.8839 31.98 -1.585
C -17.7535 30.75 -1.585
C -15.6234 29.5197 -1.59746
C -13.4927 28.29 -1.6372
C -11.3629 27.06 -1.68426
C -9.23173 25.83 -1.73623
C -7.10158 24.6002 -1.78392
C -4.97138 23.3696 -1.82825
C -2.84088 22.1399 -1.87447
C -0.71069 20.9099 -1.92533
C 1.42026 19.6806 -1.96927
C 3.55047 18.4506 -1.99965
C 5.6818 17.22 -2.01307
C 7.81226 15.9902 -2.01148
C 9.94247 14.7592 -1.995
C 12.0729 13.5292 -1.96319
C 14.2031 12.2988 -1.92822
C 16.334 11.0693 -1.88921
C 18.4639 9.83941 -1.83793
C 20.5945 8.60886 -1.77813
C 22.7244 7.37953 -1.72737
C 24.8544 6.1494 -1.68577
C 26.9846 4.91964 -1.63735
C 29.1145 3.68964 -1.59627
C 31.2462 2.46 -1.585
C 33.3766 1.23 -1.585
C 35.507 0 -1.585
C 37.6375 -1.23 -1.585
C 39.7679 -2.46 -1.585
C 41.8983 -3.69 -1.585
C -22.0144 35.67 -1.585
C -19.8839 34.44 -1.585
C -17.7535 33.21 -1.585
C -15.6231 31.98 -1.585
C -13.4928 30.7498 -1.59756
C -11.3619 29.5192 -1.62709
C -9.23128 28.2906 -1.67262
C -7.10135 27.0598 -1.72074
C -4.97107 25.8303 -1.76817
C -2.84156 24.5997 -1.80998
C -0.710006 23.3693 -1.85578
C 1.42055 22.1406 -1.89903
C 3.55088 20.9105 -1.92588
C 5.682 19.6812 -1.94417
C 7.81213 18.4502 -1.94958
C 9.94276 17.2203 -1.94845
C 12.0723 15.9896 -1.9263
C 14.2036 14.7586 -1.89257
C 16.3341 13.5297 -1.85772
C 18.4638 12.2995 -1.81039
C 20.5945 11.0703 -1.7575
C 22.724 9.83957 -1.71007
C 24.8548 8.60961 -1.68014
C 26.9846 7.37942 -1.63816
C 29.1158 6.14868 -1.59508
C 31.2462 4.92 -1.585
C 33.3766 3.69 -1.585
C 35.507 2.46 -1.585
C 37.6375 1.23 -1.585
C 39.7679 -8.88178e-16 -1.585
C 41.8983 -1.23 -1.585
C -19.8839 36.9 -1.585
C -17.7535 35.67 -1.585
C -15.6231 34.44 -1.585
C -13.4927 33.21 -1.585
C -11.3623 31.98 -1.585
C -9.23221 30.75 -1.62045
C -7.10091 29.5194 -1.66414
C -4.97081 28.2898 -1.70604
C -2.84056 27.0598 -1.74495
C -0.71013 25.8302 -1.79006
C 1.42018 24.6001 -1.82161
C 3.55063 23.3704 -1.85282
C 5.68103 22.1406 -1.87242
C 7.81243 20.91 -1.88169
C 9.94276 19.68 -1.88282
C 12.0729 18.4498 -1.87162
C 14.2034 17.2199 -1.85499
C 16.3334 15.9896 -1.81811
C 18.4638 14.7597 -1.78199
C 20.5935 13.53 -1.73804
C 22.7246 12.2996 -1.69208
C 24.8551 11.07 -1.66203
C 26.985 9.83956 -1.62547
C 29.1158 8.61 -1.585
C 31.2462 7.38 -1.585
C 33.3766 6.15 -1.585
C 35.507 4.92 -1.585
C 37.6375 3.69 -1.585
C 39.7679 2.46 -1.585
C 41.8983 1.23 -1.585
C -17.7535 38.13 -1.585
C -15.6231 36.9 -1.585
C -13.4927 35.67 -1.585
C -11.3623 34.44 -1.585
C -9.23183 33.21 -1.585
C -7.10133 31.9799 -1.61228
C -4.97104 30.7496 -1.64039
C -2.84101 29.5194 -1.6799
C -0.710227 28.2897 -1.71874
C 1.42021 27.0598 -1.75044
C 3.5507 25.8291 -1.77198
C 5.68133 24.5998 -1.79386
C 7.81186 23.3702 -1.81307
C 9.9421 22.1399 -1.80789
C 12.072 20.9094 -1.80148
C 14.203 19.6796 -1.79566
C 16.3333 18.4496 -1.77583
C 18.4635 17.2192 -1.74321
C 20.5939 15.9898 -1.70743
C 22.7242 14.76 -1.67519
C 24.8545 13.53 -1.63707
C 26.9848 12.2997 -1.60945
C 29.1158 11.07 -1.585
C 31.2462 9.84 -1.585
C 33.3766 8.61 -1.585
C 35.507 7.38 -1.585
C 37.6375 6.15 -1.585
C 39.7679 4.92 -1.585
C 41.8983 3.69 -1.585
C -15.6231 39.36 -1.585
C -13.4927 38.13 -1.585
C -11.3623 36.9 -1.585
C -9.23183 35.67 -1.585
C -7.10141 34.44 -1.585
C -4.97099 33.21 -1.585
C -2.84009 31.9786 -1.61164
C -0.709682 30.7496 -1.64452
C 1.42021 29.5193 -1.67617
C 3.55057 28.2897 -1.69432
C 5.68029 27.0593 -1.71332
C 7.81172 25.8297 -1.74017
C 9.94197 24.5998 -1.74383
C 12.0724 23.3687 -1.72563
C 14.2028 22.1395 -1.71965
C 16.3329 20.9094 -1.71732
C 18.4632 19.68 -1.69763
C 20.5928 18.4499 -1.66995
C 22.7245 17.2198 -1.64566
C 24.8547 15.99 -1.61203
C 26.9854 14.76 -1.585
C 29.1158 13.53 -1.585
C 31.2462 12.3 -1.585
C 33.3766 11.07 -1.585
C 35.507 9.84 -1.585
C 37.6375 8.61 -1.585
C 39.7679 7.38 -1.585
C 41.8983 6.15 -1.585
C -11.3623 39.36 -1.585
C -9.23183 38.13 -1.585
C -7.10141 36.9 -1.585
C -4.97099 35.67 -1.585
C -2.84056 34.44 -1.585
C -0.710141 33.21 -1.585
C 1.42045 31.9795 -1.61262
C 3.5502 30.7496 -1.63827
C 5.68133 29.5188 -1.64808
C 7.81198 28.29 -1.66487
C 9.94183 27.0594 -1.67362
C 12.0724 25.8301 -1.66737
C 14.2018 24.5993 -1.65686
C 16.3332 23.3691 -1.66355
C 18.4633 22.1399 -1.65835
C 20.5938 20.9095 -1.63143
C 22.7247 19.6809 -1.6097
C 24.8549 18.45 -1.585
C 26.9854 17.22 -1.585
C 29.1158 15.99 -1.585
C 31.2462 14.76 -1.585
C 33.3766 13.53 -1.585
C 35.507 12.3 -1.585
C 37.6375 11.07 -1.585
C 39.7679 9.84 -1.585
C -9.23183 40.59 -1.585
C -7.10141 39.36 -1.585
C -4.97099 38.13 -1.585
C -2.84056 36.9 -1.585
C -0.710141 35.67 -1.585
C 1.42028 34.44 -1.585
C 3.5507 33.21 -1.585
C 5.68129 31.98 -1.60805
C 7.81127 30.7496 -1.60701
C 9.94218 29.5194 -1.61331
C 12.072 28.2898 -1.61312
C 14.2027 27.0594 -1.60718
C 16.3332 25.8301 -1.61357
C 18.4634 24.5999 -1.61004
C 20.594 23.3702 -1.60731
C 22.7245 22.14 -1.585
C 24.8549 20.91 -1.585
C 26.9854 19.68 -1.585
C 29.1158 18.45 -1.585
C 31.2462 17.22 -1.585
C 33.3766 15.99 -1.585
C 35.507 14.76 -1.585
C 37.6375 13.53 -1.585
C 39.7679 12.3 -1.585
C -7.10141 41.82 -1.585
C -4.97099 40.59 -1.585
C -2.84056 39.36 -1.585
C -0.710141 38.13 -1.585
C 1.42028 36.9 -1.585
C 3.5507 35.67 -1.585
C 5.68113 34.44 -1.585
C 7.81155 33.21 -1.585
C 9.94197 31.98 -1.585
C 12.0724 30.75 -1.585
C 14.2028 29.52 -1.585
C 16.3332 28.29 -1.585
C 18.4637 27.06 -1.585
C 20.5941 25.83 -1.585
C 22.7245 24.6 -1.585
C 24.8549 23.37 -1.585
C 26.9854 22.14 -1.585
C 29.1158 20.91 -1.585
C 31.2462 19.68 -1.585
C 33.3766 18.45 -1.585
C 35.507 17.22 -1.585
C 37.6375 15.99 -1.585
C 39.7679 14.76 -1.585
C -2.84056 41.82 -1.585
C -0.710141 40.59 -1.585
C 1.42028 39.36 -1.585
C 3.5507 38.13 -1.585
C 5.68113 36.9 -1.585
C 7.81155 35.67 -1.585
C 9.94197 34.44 -1.585
C 12.0724 33.21 -1.585
C 14.2028 31.98 -1.585
C 16.3332 30.75 -1.585
C 18.4637 29.52 -1.585
C 20.5941 28.29 -1.585
C 22.7245 27.06 -1.585
C 24.8549 25.83 -1.585
C 26.9854 24.6 -1.585
C 29.1158 23.37 -1.585
C 31.2462 22.14 -1.585
C 33.3766 20.91 -1.585
C 35.507 19.68 -1.585
C 37.6375 18.45 -1.585
C 1.42028 41.82 -1.585
C 3.5507 40.59 -1.585
C 5.68113 39.36 -1.585
C 7.81155 38.13 -1.585
C 9.94197 36.9 -1.585
C 12.0724 35.67 -1.585
C 14.2028 34.44 -1.585
C 16.3332 33.21 -1.585
C 18.4637 31.98 -1.585
C 20.5941 30.75 -1.585
C 22.7245 29.52 -1.585
C 24.8549 28.29 -1.585
C 26.9854 27.06 -1.585
C 29.1158 25.83 -1.585
C 31.2462 24.6 -1.585
C 33.3766 23.37 -1.585
C 35.507 22.14 -1.585
C 5.68113 41.82 -1.585
C 7.81155 40.59 -1.585
C 9.94197 39.36 -1.585
C 12.0724 38.13 -1.585
C 14.2028 36.9 -1.585
C 16.3332 35.67 -1.585
C 18.4637 34.44 -1.585
C 20.5941 33.21 -1.585
C 22.7245 31.98 -1.585
C 24.8549 30.75 -1.585
C 26.9854 29.52 -1.585
C 29.1158 28.29 -1.585
C 31.2462 27.06 -1.585
C 33.3766 25.83 -1.585
C 12.0724 40.59 -1.585
C 14.2028 39.36 -1.585
C 16.3332 38.13 -1.585
C 18.4637 36.9 -1.585
C 20.5941 35.67 -1.585
C 22.7245 34.44 -1.585
C 24.8549 33.21 -1.585
C 26.9854 31.98 -1.585
C 29.1158 30.75 -1.585
C -21.3042 -36.9 -1.585
C -29.8259 -29.52 -1.585
C -27.6955 -30.75 -1.585
C -25.5651 -31.98 -1.585
C -23.4346 -33.21 -1.585
C -21.3042 -34.44 -1.585
C -19.1738 -35.67 -1.585
C -17.0434 -36.9 -1.585
C -14.913 -38.13 -1.585
C -12.7825 -39.36 -1.585
C -10.6521 -40.59 -1.585
C -34.0868 -24.6 -1.585
C -31.9563 -25.83 -1.585
C -29.8259 -27.06 -1.585
C -27.6955 -28.29 -1.585
C -25.5651 -29.52 -1.585
C -23.4346 -30.75 -1.585
C -21.3042 -31.98 -1.585
C -19.1738 -33.21 -1.585
C -17.0434 -34.44 -1.585
C -14.913 -35.67 -1.585
C -12.7825 -36.9 -1.585
C -10.6521 -38.13 -1.585
C -8.52169 -39.36 -1.585
C -6.39127 -40.59 -1.585
C -4.26084 -41.82 -1.585
C -36.2172 -20.91 -1.585
C -34.0868 -22.14 -1.585
C -31.9563 -23.37 -1.585
C -29.8259 -24.6 -1.585
C -27.6955 -25.83 -1.585
C -25.5651 -27.06 -1.585
C -23.4346 -28.29 -1.585
C -21.3042 -29.52 -1.585
C -19.1738 -30.75 -1.585
C -17.0434 -31.98 -1.585
C -14.913 -33.21 -1.585
C -12.7825 -34.44 -1.585
C -10.6521 -35.67 -1.585
C -8.52169 -36.9 -1.585
C -6.39127 -38.13 -1.585
C -4.26084 -39.36 -1.585
C -2.13042 -40.59 -1.585
C 0 -41.82 -1.585
C -38.3476 -17.22 -1.585
C -36.2172 -18.45 -1.585
C -34.0868 -19.68 -1.585
C -31.9563 -20.91 -1.585
C -29.8259 -22.14 -1.585
C -27.6955 -23.37 -1.585
C -25.5651 -24.6 -1.585
C -23.4346 -25.83 -1.585
C -21.3042 -27.06 -1.585
C -19.1738 -28.29 -1.585
C -17.0434 -29.52 -1.585
C -14.913 -30.75 -1.585
C -12.7825 -31.98 -1.585
C -10.6521 -33.21 -1.585
C -8.52169 -34.44 -1.585
C -6.39127 -35.67 -1.585
C -4.26084 -36.9 -1.585
C -2.13042 -38.13 -1.585
C 0 -39.36 -1.585
C 2.13042 -40.59 -1.585