Mixed graphene (30 degrees)
4330 atoms
2 atom types

-42.608449866194384 42.608449866194384 xlo xhi
-42.608449866194384 42.608449866194384 ylo yhi
-42.608449866194384 42.608449866194384 zlo zhi

Masses

1 12.0107
2 1.001

Atoms

1 1 -26.275210750819866 -33.21 -1.585
2 1 -24.144788257510147 -34.44 -1.585
3 1 -22.01436576420043 -35.67 -1.585
4 1 -19.88394327089071 -36.9 -1.585
5 1 -17.75352077758099 -38.129999999999995 -1.585
6 1 -15.623098284271274 -39.36 -1.585
7 1 -32.66647823074903 -27.06 -1.585
8 1 -30.536055737439305 -28.29 -1.585
9 1 -28.405633244129586 -29.52 -1.585
10 1 -26.275210750819866 -30.75 -1.585
11 1 -24.144788257510147 -31.98 -1.585
12 1 -22.01436576420043 -33.21 -1.585
13 1 -19.88394327089071 -34.44 -1.585
14 1 -17.75352077758099 -35.67 -1.585
15 1 -15.623098284271274 -36.9 -1.585
16 1 -13.492675790961554 -38.13 -1.585
17 1 -11.362253297651835 -39.36 -1.585
18 1 -9.231830804342117 -40.589999999999996 -1.585
19 1 -7.101408311032397 -41.82 -1.585
20 1 -34.796900724058744 -23.369999999999997 -1.585
21 1 -32.66647823074903 -24.6 -1.585
22 1 -30.536055737439305 -25.83 -1.585
23 1 -28.405633244129586 -27.060000000000002 -1.585
24 1 -26.275210750819866 -28.29 -1.585
25 1 -24.144788257510147 -29.52 -1.585
26 1 -22.01436576420043 -30.75 -1.585
27 1 -19.88394327089071 -31.979999999999997 -1.585
28 1 -17.75352077758099 -33.21 -1.585
29 1 -15.623098284271274 -34.44 -1.585
30 1 -13.492675790961554 -35.67 -1.585
31 1 -11.362253297651835 -36.9 -1.585
32 1 -9.231830804342117 -38.129999999999995 -1.585
33 1 -7.101408311032397 -39.36 -1.585
34 1 -4.970985817722678 -40.589999999999996 -1.585
35 1 -2.840563324412959 -41.82 -1.585
36 1 -36.92732321736847 -19.68 -1.585
37 1 -34.796900724058744 -20.91 -1.585
38 1 -32.66647823074903 -22.14 -1.585
39 1 -30.536055737439305 -23.37 -1.585
40 1 -28.405633244129586 -24.6 -1.585
41 1 -26.275210750819866 -25.83 -1.585
42 1 -24.144788257510147 -27.06 -1.585
43 1 -22.01436576420043 -28.29 -1.585
44 1 -19.88394327089071 -29.52 -1.585
45 1 -17.75352077758099 -30.75 -1.585
46 1 -15.623098284271274 -31.98 -1.585
47 1 -13.492675790961554 -33.21 -1.585
48 1 -11.362253297651835 -34.44 -1.585
49 1 -9.231830804342117 -35.67 -1.585
50 1 -7.101408311032397 -36.9 -1.585
51 1 -4.970985817722678 -38.13 -1.585
52 1 -2.840563324412959 -39.36 -1.585
53 1 -0.7101408311032398 -40.589999999999996 -1.585
54 1 1.4202816622064793 -41.82 -1.585
55 1 -39.057745710678184 -15.989999999999998 -1.585
56 1 -36.92732321736847 -17.22 -1.585
57 1 -34.796900724058744 -18.45 -1.585
58 1 -32.66647823074903 -19.68 -1.585
59 1 -30.536055737439305 -20.91 -1.585
60 1 -28.405633244129586 -22.14 -1.585
61 1 -26.275210750819866 -23.369999999999997 -1.585
62 1 -24.144788257510147 -24.6 -1.585
63 1 -22.01436576420043 -25.83 -1.585
64 1 -19.88394327089071 -27.06 -1.585
65 1 -17.75352077758099 -28.29 -1.585
66 1 -15.623098284271274 -29.52 -1.585
67 1 -13.492675790961554 -30.75 -1.585
68 1 -11.362253297651835 -31.98 -1.585
69 1 -9.231830804342117 -33.21 -1.585
70 1 -7.101408311032397 -34.44 -1.585
71 1 -4.970985817722678 -35.67 -1.585
72 1 -2.840563324412959 -36.9 -1.585
73 1 -0.7101408311032398 -38.13 -1.585
74 1 1.4202816622064793 -39.36 -1.585
75 1 3.5507041555161987 -40.589999999999996 -1.585
76 1 5.681126648825917 -41.82 -1.585
77 1 -39.057745710678184 -13.529999999999998 -1.585
78 1 -36.92732321736847 -14.759999999999998 -1.585
79 1 -34.796900724058744 -15.989999999999998 -1.585
80 1 -32.66647823074903 -17.22 -1.585
81 1 -30.536055737439305 -18.45 -1.585
82 1 -28.405633244129586 -19.68 -1.585
83 1 -26.275210750819866 -20.91 -1.585
84 1 -24.144788257510147 -22.14 -1.585
85 1 -22.01436576420043 -23.37 -1.585
86 1 -19.88394327089071 -24.599999999999998 -1.585
87 1 -17.75352077758099 -25.83 -1.585
88 1 -15.623098284271274 -27.06 -1.585
89 1 -13.492675790961554 -28.29 -1.585
90 1 -11.362253297651835 -29.52 -1.585
91 1 -9.231830804342117 -30.75 -1.585
92 1 -7.101408311032397 -31.98 -1.585
93 1 -4.970985817722678 -33.21 -1.585
94 1 -2.840563324412959 -34.44 -1.585
95 1 -0.7101408311032398 -35.67 -1.585
96 1 1.4202816622064793 -36.9 -1.585
97 1 3.5507041555161987 -38.13 -1.585
98 1 5.681126648825917 -39.36 -1.585
99 1 7.811549142135636 -40.589999999999996 -1.585
100 1 -41.18816820398791 -9.839999999999998 -1.585
101 1 -39.057745710678184 -11.069999999999999 -1.585
102 1 -36.92732321736847 -12.299999999999999 -1.585
103 1 -34.796900724058744 -13.53 -1.585
104 1 -32.66647823074903 -14.76 -1.585
105 1 -30.536055737439305 -15.99 -1.585
106 1 -28.405633244129586 -17.22 -1.585
107 1 -26.275210750819866 -18.45 -1.585
108 1 -24.144788257510147 -19.68 -1.585
109 1 -22.01436576420043 -20.91 -1.585
110 1 -19.88394327089071 -22.14 -1.585
111 1 -17.75352077758099 -23.369999999999997 -1.585
112 1 -15.623098284271274 -24.6 -1.585
113 1 -13.492675790961554 -25.83 -1.585
114 1 -11.362253297651835 -27.06 -1.585
115 1 -9.231830804342117 -28.29 -1.585
116 1 -7.101408311032397 -29.52 -1.585
117 1 -4.970985817722678 -30.75 -1.585
118 1 -2.840563324412959 -31.98 -1.585
119 1 -0.7101408311032398 -33.21 -1.585
120 1 1.4202816622064793 -34.44 -1.585
121 1 3.5507041555161987 -35.67 -1.585
122 1 5.681126648825917 -36.9 -1.585
123 1 7.811549142135636 -38.13 -1.585
124 1 9.941971635445356 -39.36 -1.585
125 1 12.072394128755075 -40.59 -1.585
126 1 -41.18816820398791 -7.379999999999998 -1.585
127 1 -39.057745710678184 -8.61 -1.585
128 1 -36.92732321736847 -9.84 -1.585
129 1 -34.796900724058744 -11.07 -1.585
130 1 -32.66647823074903 -12.3 -1.585
131 1 -30.536055737439305 -13.530000000000001 -1.585
132 1 -28.405633244129586 -14.760000000000002 -1.585
133 1 -26.275210750819866 -15.989999999999998 -1.585
134 1 -24.144788257510147 -17.22 -1.585
135 1 -22.01436576420043 -18.45 -1.585
136 1 -19.88394327089071 -19.68 -1.585
137 1 -17.75352077758099 -20.91 -1.585
138 1 -15.623098284271274 -22.14 -1.585
139 1 -13.492675790961554 -23.37 -1.585
140 1 -11.362253297651835 -24.6 -1.585
141 1 -9.231830804342117 -25.83 -1.585
142 1 -7.101408311032397 -27.06 -1.585
143 1 -4.970985817722678 -28.29 -1.585
144 1 -2.840563324412959 -29.52 -1.585
145 1 -0.7101408311032398 -30.75 -1.585
146 1 1.4202816622064793 -31.98 -1.585
147 1 3.5507041555161987 -33.21 -1.585
148 1 5.681126648825917 -34.44 -1.585
149 1 7.811549142135636 -35.67 -1.585
150 1 9.941971635445356 -36.9 -1.585
151 1 12.072394128755075 -38.13 -1.585
152 1 14.202816622064793 -39.36 -1.585
153 1 -41.18816820398791 -4.919999999999998 -1.585
154 1 -39.057745710678184 -6.149999999999999 -1.585
155 1 -36.92732321736847 -7.379999999999999 -1.585
156 1 -34.796900724058744 -8.61 -1.585
157 1 -32.66647823074903 -9.84 -1.585
158 1 -30.536055737439305 -11.07 -1.585
159 1 -28.405633244129586 -12.3 -1.585
160 1 -26.275210750819866 -13.53 -1.585
161 1 -24.144788257510147 -14.76 -1.585
162 1 -22.01436576420043 -15.99 -1.585
163 1 -19.88394327089071 -17.22 -1.585
164 1 -17.75352077758099 -18.45 -1.585
165 1 -15.623098284271274 -19.68 -1.585
166 1 -13.492675790961554 -20.91 -1.585
167 1 -11.362253297651835 -22.14 -1.585
168 1 -9.231830804342117 -23.369999999999997 -1.585
169 1 -7.101408311032397 -24.6 -1.585
170 1 -4.970985817722678 -25.83 -1.585
171 1 -2.840563324412959 -27.06 -1.585
172 1 -0.7101408311032398 -28.29 -1.585
173 1 1.4202816622064793 -29.52 -1.585
174 1 3.5507041555161987 -30.75 -1.585
175 1 5.681126648825917 -31.98 -1.585
176 1 7.811549142135636 -33.21 -1.585
177 1 9.941971635445356 -34.44 -1.585
178 1 12.072394128755075 -35.67 -1.585
179 1 14.202816622064793 -36.9 -1.585
180 1 16.333239115374514 -38.129999999999995 -1.585
181 1 -41.18816820398791 -2.459999999999998 -1.585
182 1 -39.057745710678184 -3.6899999999999986 -1.585
183 1 -36.92732321736847 -4.919999999999999 -1.585
184 1 -34.796900724058744 -6.1499999999999995 -1.585
185 1 -32.66647823074903 -7.38 -1.585
186 1 -30.536055737439305 -8.61 -1.585
187 1 -28.405633244129586 -9.84 -1.585
188 1 -26.275210750819866 -11.07 -1.585
189 1 -24.144788257510147 -12.3 -1.585
190 1 -22.01436576420043 -13.530000000000001 -1.585
191 1 -19.88394327089071 -14.759999999999998 -1.585
192 1 -17.75352077758099 -15.989999999999998 -1.585
193 1 -15.623098284271274 -17.22 -1.585
194 1 -13.492675790961554 -18.45 -1.585
195 1 -11.362253297651835 -19.68 -1.585
196 1 -9.231830804342117 -20.91 -1.585
197 1 -7.101408311032397 -22.14 -1.585
198 1 -4.970985817722678 -23.37 -1.585
199 1 -2.840563324412959 -24.6 -1.585
200 1 -0.7101408311032398 -25.83 -1.585
201 1 1.4202816622064793 -27.06 -1.585
202 1 3.5507041555161987 -28.29 -1.585
203 1 5.681126648825917 -29.52 -1.585
204 1 7.811549142135636 -30.75 -1.585
205 1 9.941971635445356 -31.98 -1.585
206 1 12.072394128755075 -33.21 -1.585
207 1 14.202816622064793 -34.44 -1.585
208 1 16.333239115374514 -35.67 -1.585
209 1 18.463661608684234 -36.9 -1.585
210 1 -41.18816820398791 1.7763568394002505e-15 -1.585
211 1 -39.057745710678184 -1.2299999999999986 -1.585
212 1 -36.92732321736847 -2.459999999999999 -1.585
213 1 -34.796900724058744 -3.6899999999999995 -1.585
214 1 -32.66647823074903 -4.92 -1.585
215 1 -30.536055737439305 -6.15 -1.585
216 1 -28.405633244129586 -7.380000000000001 -1.585
217 1 -26.275210750819866 -8.61 -1.585
218 1 -24.144788257510147 -9.84 -1.585
219 1 -22.01436576420043 -11.07 -1.585
220 1 -19.88394327089071 -12.299999999999999 -1.585
221 1 -17.75352077758099 -13.53 -1.585
222 1 -15.623098284271274 -14.76 -1.585
223 1 -13.492675790961554 -15.99 -1.585
224 1 -11.362253297651835 -17.22 -1.585
225 1 -9.231830804342117 -18.45 -1.585
226 1 -7.101408311032397 -19.68 -1.585
227 1 -4.970985817722678 -20.91 -1.585
228 1 -2.840563324412959 -22.14 -1.585
229 1 -0.7101408311032398 -23.37 -1.585
230 1 1.4202816622064793 -24.6 -1.585
231 1 3.5507041555161987 -25.83 -1.585
232 1 5.681126648825917 -27.06 -1.585
233 1 7.811549142135636 -28.29 -1.585
234 1 9.941971635445356 -29.52 -1.585
235 1 12.072394128755075 -30.75 -1.585
236 1 14.202816622064793 -31.98 -1.585
237 1 16.333239115374514 -33.21 -1.585
238 1 18.463661608684234 -34.44 -1.585
239 1 20.594084101993953 -35.67 -1.585
240 1 -41.18816820398791 2.4600000000000017 -1.585
241 1 -39.057745710678184 1.2300000000000013 -1.585
242 1 -36.92732321736847 8.881784197001252e-16 -1.585
243 1 -34.796900724058744 -1.2299999999999995 -1.585
244 1 -32.66647823074903 -2.46 -1.585
245 1 -30.536055737439305 -3.6900000000000004 -1.585
246 1 -28.405633244129586 -4.920000000000001 -1.585
247 1 -26.275210750819866 -6.1499999999999995 -1.585
248 1 -24.144788257510147 -7.38 -1.585
249 1 -22.01436576420043 -8.61 -1.585
250 1 -19.88394327089071 -9.84 -1.585
251 1 -17.75352077758099 -11.07 -1.585
252 1 -15.623098284271274 -12.3 -1.585
253 1 -13.492675790961554 -13.530000000000001 -1.585
254 1 -11.362253297651835 -14.76 -1.585
255 1 -9.231830804342117 -15.989999999999998 -1.585
256 1 -7.101408311032397 -17.22 -1.585
257 1 -4.970985817722678 -18.45 -1.585
258 1 -2.840563324412959 -19.68 -1.585
259 1 -0.7101408311032398 -20.91 -1.585
260 1 1.4202816622064793 -22.14 -1.585
261 1 3.5507041555161987 -23.37 -1.585
262 1 5.681126648825917 -24.6 -1.585
263 1 7.811549142135636 -25.83 -1.585
264 1 9.941971635445356 -27.06 -1.585
265 1 12.072394128755075 -28.29 -1.585
266 1 14.202816622064793 -29.52 -1.585
267 1 16.333239115374514 -30.75 -1.585
268 1 18.463661608684234 -31.98 -1.585
269 1 20.594084101993953 -33.21 -1.585
270 1 22.724506595303673 -34.44 -1.585
271 1 -41.18816820398791 4.920000000000002 -1.585
272 1 -39.057745710678184 3.6900000000000013 -1.585
273 1 -36.92732321736847 2.460000000000001 -1.585
274 1 -34.796900724058744 1.2300000000000004 -1.585
275 1 -32.66647823074903 0.0 -1.585
276 1 -30.536055737439305 -1.2300000000000004 -1.585
277 1 -28.405633244129586 -2.460000000000001 -1.585
278 1 -26.275210750819866 -3.6899999999999995 -1.585
279 1 -24.144788257510147 -4.92 -1.585
280 1 -22.01436576420043 -6.15 -1.585
281 1 -19.88394327089071 -7.379999999999999 -1.585
282 1 -17.75352077758099 -8.61 -1.585
283 1 -15.623098284271274 -9.84 -1.585
284 1 -13.492675790961554 -11.07 -1.585
285 1 -11.362253297651835 -12.3 -1.585
286 1 -9.231830804342117 -13.53 -1.585
287 1 -7.101408311032397 -14.76 -1.585
288 1 -4.970985817722678 -15.99 -1.585
289 1 -2.840563324412959 -17.22 -1.585
290 1 -0.7101408311032398 -18.45 -1.585
291 1 1.4202816622064793 -19.68 -1.585
292 1 3.5507041555161987 -20.91 -1.585
293 1 5.681126648825917 -22.14 -1.585
294 1 7.811549142135636 -23.37 -1.585
295 1 9.941971635445356 -24.6 -1.585
296 1 12.072394128755075 -25.83 -1.585
297 1 14.202816622064793 -27.06 -1.585
298 1 16.333239115374514 -28.29 -1.585
299 1 18.463661608684234 -29.52 -1.585
300 1 20.594084101993953 -30.75 -1.585
301 1 22.724506595303673 -31.98 -1.585
302 1 24.854929088613392 -33.21 -1.585
303 1 -41.18816820398791 7.380000000000002 -1.585
304 1 -39.057745710678184 6.150000000000001 -1.585
305 1 -36.92732321736847 4.920000000000001 -1.585
306 1 -34.796900724058744 3.6900000000000004 -1.585
307 1 -32.66647823074903 2.46 -1.585
308 1 -30.536055737439305 1.2299999999999995 -1.585
309 1 -28.405633244129586 -8.881784197001252e-16 -1.585
310 1 -26.275210750819866 -1.2299999999999995 -1.585
311 1 -24.144788257510147 -2.46 -1.585
312 1 -22.01436576420043 -3.6900000000000004 -1.585
313 1 -19.88394327089071 -4.919999999999999 -1.585
314 1 -17.75352077758099 -6.1499999999999995 -1.585
315 1 -15.623098284271274 -7.38 -1.585
316 1 -13.492675790961554 -8.61 -1.585
317 1 -11.362253297651835 -9.84 -1.585
318 1 -9.231830804342117 -11.07 -1.585
319 1 -7.101408311032397 -12.3 -1.585
320 1 -4.970985817722678 -13.53 -1.585
321 1 -2.840563324412959 -14.76 -1.585
322 1 -0.7101408311032398 -15.99 -1.585
323 1 1.4202816622064793 -17.22 -1.585
324 1 3.5507041555161987 -18.45 -1.585
325 1 5.681126648825917 -19.68 -1.585
326 1 7.811549142135636 -20.91 -1.585
327 1 9.941971635445356 -22.14 -1.585
328 1 12.072394128755075 -23.37 -1.585
329 1 14.202816622064793 -24.6 -1.585
330 1 16.333239115374514 -25.83 -1.585
331 1 18.463661608684234 -27.06 -1.585
332 1 20.594084101993953 -28.29 -1.585
333 1 22.724506595303673 -29.52 -1.585
334 1 24.854929088613392 -30.75 -1.585
335 1 26.98535158192311 -31.98 -1.585
336 1 -41.18816820398791 9.840000000000002 -1.585
337 1 -39.057745710678184 8.610000000000001 -1.585
338 1 -36.92732321736847 7.380000000000001 -1.585
339 1 -34.796900724058744 6.15 -1.585
340 1 -32.66647823074903 4.92 -1.585
341 1 -30.536055737439305 3.6899999999999995 -1.585
342 1 -28.405633244129586 2.459999999999999 -1.585
343 1 -26.275210750819866 1.2300000000000004 -1.585
344 1 -24.144788257510147 0.0 -1.585
345 1 -22.01436576420043 -1.2300000000000004 -1.585
346 1 -19.88394327089071 -2.459999999999999 -1.585
347 1 -17.75352077758099 -3.6899999999999995 -1.585
348 1 -15.623098284271274 -4.92 -1.585
349 1 -13.492675790961554 -6.15 -1.585
350 1 -11.362253297651835 -7.38 -1.585
351 1 -9.231830804342117 -8.61 -1.585
352 1 -7.101408311032397 -9.84 -1.585
353 1 -4.970985817722678 -11.07 -1.585
354 1 -2.840563324412959 -12.3 -1.585
355 1 -0.7101408311032398 -13.53 -1.585
356 1 1.4202816622064793 -14.76 -1.585
357 1 3.5507041555161987 -15.99 -1.585
358 1 5.681126648825917 -17.22 -1.585
359 1 7.811549142135636 -18.45 -1.585
360 1 9.941971635445356 -19.68 -1.585
361 1 12.072394128755075 -20.91 -1.585
362 1 14.202816622064793 -22.14 -1.585
363 1 16.333239115374514 -23.369999999999997 -1.585
364 1 18.463661608684234 -24.6 -1.585
365 1 20.594084101993953 -25.83 -1.585
366 1 22.724506595303673 -27.060000000000002 -1.585
367 1 24.854929088613392 -28.29 -1.585
368 1 26.98535158192311 -29.52 -1.585
369 1 29.115774075232828 -30.75 -1.585
370 1 -39.057745710678184 11.07 -1.585
371 1 -36.92732321736847 9.84 -1.585
372 1 -34.796900724058744 8.61 -1.585
373 1 -32.66647823074903 7.38 -1.585
374 1 -30.536055737439305 6.1499999999999995 -1.585
375 1 -28.405633244129586 4.919999999999999 -1.585
376 1 -26.275210750819866 3.6900000000000004 -1.585
377 1 -24.144788257510147 2.46 -1.585
378 1 -22.01436576420043 1.2299999999999995 -1.585
379 1 -19.88394327089071 8.881784197001252e-16 -1.585
380 1 -17.75352077758099 -1.2299999999999995 -1.585
381 1 -15.623098284271274 -2.46 -1.585
382 1 -13.492675790961554 -3.6900000000000004 -1.585
383 1 -11.362253297651835 -4.92 -1.585
384 1 -9.231830804342117 -6.1499999999999995 -1.585
385 1 -7.101408311032397 -7.38 -1.585
386 1 -4.970985817722678 -8.61 -1.585
387 1 -2.840563324412959 -9.84 -1.585
388 1 -0.7101408311032398 -11.07 -1.585
389 1 1.4202816622064793 -12.3 -1.585
390 1 3.5507041555161987 -13.53 -1.585
391 1 5.681126648825917 -14.76 -1.585
392 1 7.811549142135636 -15.99 -1.585
393 1 9.941971635445356 -17.22 -1.585
394 1 12.072394128755075 -18.45 -1.585
395 1 14.202816622064793 -19.68 -1.585
396 1 16.333239115374514 -20.91 -1.585
397 1 18.463661608684234 -22.14 -1.585
398 1 20.594084101993953 -23.37 -1.585
399 1 22.724506595303673 -24.6 -1.585
400 1 24.854929088613392 -25.83 -1.585
401 1 26.98535158192311 -27.06 -1.585
402 1 29.115774075232828 -28.29 -1.585
403 1 -39.057745710678184 13.530000000000001 -1.585
404 1 -36.92732321736847 12.3 -1.585
405 1 -34.796900724058744 11.07 -1.585
406 1 -32.66647823074903 9.84 -1.585
407 1 -30.536055737439305 8.61 -1.585
408 1 -28.405633244129586 7.379999999999999 -1.585
409 1 -26.275210750819866 6.15 -1.585
410 1 -24.144788257510147 4.92 -1.585
411 1 -22.01436576420043 3.6899999999999995 -1.585
412 1 -19.88394327089071 2.460000000000001 -1.585
413 1 -17.75352077758099 1.2300000000000004 -1.585
414 1 -15.623098284271274 0.0 -1.585
415 1 -13.492675790961554 -1.2300000000000004 -1.585
416 1 -11.362253297651835 -2.46 -1.585
417 1 -9.231830804342117 -3.6899999999999995 -1.585
418 1 -7.101408311032397 -4.92 -1.585
419 1 -4.970985817722678 -6.15 -1.585
420 1 -2.840563324412959 -7.38 -1.585
421 1 -0.7101408311032398 -8.61 -1.585
422 1 1.4202816622064793 -9.84 -1.585
423 1 3.5507041555161987 -11.07 -1.585
424 1 5.681126648825917 -12.3 -1.585
425 1 7.811549142135636 -13.53 -1.585
426 1 9.941971635445356 -14.76 -1.585
427 1 12.072394128755075 -15.99 -1.585
428 1 14.202816622064793 -17.22 -1.585
429 1 16.333239115374514 -18.45 -1.585
430 1 18.463661608684234 -19.68 -1.585
431 1 20.594084101993953 -20.91 -1.585
432 1 22.724506595303673 -22.14 -1.585
433 1 24.854929088613392 -23.369999999999997 -1.585
434 1 26.98535158192311 -24.6 -1.585
435 1 29.115774075232828 -25.83 -1.585
436 1 31.246196568542548 -27.06 -1.585
437 1 -39.057745710678184 15.990000000000002 -1.585
438 1 -36.92732321736847 14.760000000000002 -1.585
439 1 -34.796900724058744 13.530000000000001 -1.585
440 1 -32.66647823074903 12.3 -1.585
441 1 -30.536055737439305 11.07 -1.585
442 1 -28.405633244129586 9.84 -1.585
443 1 -26.275210750819866 8.61 -1.585
444 1 -24.144788257510147 7.38 -1.585
445 1 -22.01436576420043 6.1499999999999995 -1.585
446 1 -19.88394327089071 4.920000000000001 -1.585
447 1 -17.75352077758099 3.6900000000000004 -1.585
448 1 -15.623098284271274 2.46 -1.585
449 1 -13.492675790961554 1.2299999999999995 -1.585
450 1 -11.362253297651835 0.0 -1.585
451 1 -9.231830804342117 -1.2299999999999995 -1.585
452 1 -7.101408311032397 -2.46 -1.585
453 1 -4.970985817722678 -3.69 -1.585
454 1 -2.840563324412959 -4.92 -1.585
455 1 -0.7101408311032398 -6.15 -1.585
456 1 1.4202816622064793 -7.38 -1.585
457 1 3.5507041555161987 -8.61 -1.585
458 1 5.681126648825917 -9.84 -1.585
459 1 7.811549142135636 -11.07 -1.585
460 1 9.941971635445356 -12.3 -1.585
461 1 12.072394128755075 -13.530000000000001 -1.585
462 1 14.202816622064793 -14.76 -1.585
463 1 16.333239115374514 -15.989999999999998 -1.585
464 1 18.463661608684234 -17.22 -1.585
465 1 20.594084101993953 -18.45 -1.585
466 1 22.724506595303673 -19.68 -1.585
467 1 24.854929088613392 -20.91 -1.585
468 1 26.98535158192311 -22.14 -1.585
469 1 29.115774075232828 -23.37 -1.585
470 1 31.246196568542548 -24.599999999999998 -1.585
471 1 33.37661906185227 -25.83 -1.585
472 1 -36.92732321736847 17.22 -1.585
473 1 -34.796900724058744 15.99 -1.585
474 1 -32.66647823074903 14.76 -1.585
475 1 -30.536055737439305 13.53 -1.585
476 1 -28.405633244129586 12.299999999999999 -1.585
477 1 -26.275210750819866 11.07 -1.585
478 1 -24.144788257510147 9.84 -1.585
479 1 -22.01436576420043 8.61 -1.585
480 1 -19.88394327089071 7.380000000000001 -1.585
481 1 -17.75352077758099 6.15 -1.585
482 1 -15.623098284271274 4.92 -1.585
483 1 -13.492675790961554 3.6899999999999995 -1.585
484 1 -11.362253297651835 2.46 -1.585
485 1 -9.231830804342117 1.2300000000000004 -1.585
486 1 -7.101408311032397 0.0 -1.585
487 1 -4.970985817722678 -1.23 -1.585
488 1 -2.840563324412959 -2.46 -1.585
489 1 -0.7101408311032398 -3.69 -1.585
490 1 1.4202816622064793 -4.92 -1.585
491 1 3.5507041555161987 -6.15 -1.585
492 1 5.681126648825917 -7.38 -1.585
493 1 7.811549142135636 -8.61 -1.585
494 1 9.941971635445356 -9.84 -1.585
495 1 12.072394128755075 -11.07 -1.585
496 1 14.202816622064793 -12.3 -1.585
497 1 16.333239115374514 -13.53 -1.585
498 1 18.463661608684234 -14.76 -1.585
499 1 20.594084101993953 -15.99 -1.585
500 1 22.724506595303673 -17.22 -1.585
501 1 24.854929088613392 -18.45 -1.585
502 1 26.98535158192311 -19.68 -1.585
503 1 29.115774075232828 -20.91 -1.585
504 1 31.246196568542548 -22.14 -1.585
505 1 33.37661906185227 -23.369999999999997 -1.585
506 1 -36.92732321736847 19.68 -1.585
507 1 -34.796900724058744 18.45 -1.585
508 1 -32.66647823074903 17.22 -1.585
509 1 -30.536055737439305 15.989999999999998 -1.585
510 1 -28.405633244129586 14.759999999999998 -1.585
511 1 -26.275210750819866 13.530000000000001 -1.585
512 1 -24.144788257510147 12.3 -1.585
513 1 -22.01436576420043 11.07 -1.585
514 1 -19.88394327089071 9.84 -1.585
515 1 -17.75352077758099 8.61 -1.585
516 1 -15.623098284271274 7.38 -1.585
517 1 -13.492675790961554 6.1499999999999995 -1.585
518 1 -11.362253297651835 4.92 -1.585
519 1 -9.231830804342117 3.6900000000000004 -1.585
520 1 -7.101408311032397 2.46 -1.585
521 1 -4.970985817722678 1.23 -1.585
522 1 -2.840563324412959 0.0 -1.585
523 1 -0.7101408311032398 -1.23 -1.585
524 1 1.4202816622064793 -2.46 -1.585
525 1 3.5507041555161987 -3.69 -1.585
526 1 5.681126648825917 -4.92 -1.585
527 1 7.811549142135636 -6.15 -1.585
528 1 9.941971635445356 -7.38 -1.585
529 1 12.072394128755075 -8.61 -1.585
530 1 14.202816622064793 -9.84 -1.585
531 1 16.333239115374514 -11.07 -1.585
532 1 18.463661608684234 -12.3 -1.585
533 1 20.594084101993953 -13.530000000000001 -1.585
534 1 22.724506595303673 -14.760000000000002 -1.585
535 1 24.854929088613392 -15.989999999999998 -1.585
536 1 26.98535158192311 -17.22 -1.585
537 1 29.115774075232828 -18.45 -1.585
538 1 31.246196568542548 -19.68 -1.585
539 1 33.37661906185227 -20.91 -1.585
540 1 35.50704155516198 -22.14 -1.585
541 1 -34.796900724058744 20.91 -1.585
542 1 -32.66647823074903 19.68 -1.585
543 1 -30.536055737439305 18.45 -1.585
544 1 -28.405633244129586 17.22 -1.585
545 1 -26.275210750819866 15.99 -1.585
546 1 -24.144788257510147 14.76 -1.585
547 1 -22.01436576420043 13.53 -1.585
548 1 -19.88394327089071 12.3 -1.585
549 1 -17.75352077758099 11.07 -1.585
550 1 -15.623098284271274 9.84 -1.585
551 1 -13.492675790961554 8.61 -1.585
552 1 -11.362253297651835 7.38 -1.585
553 1 -9.231830804342117 6.15 -1.585
554 1 -7.101408311032397 4.92 -1.585
555 1 -4.970985817722678 3.69 -1.585
556 1 -2.840563324412959 2.46 -1.585
557 1 -0.7101408311032398 1.23 -1.585
558 1 1.4202816622064793 0.0 -1.585
559 1 3.5507041555161987 -1.23 -1.585
560 1 5.681126648825917 -2.46 -1.585
561 1 7.811549142135636 -3.69 -1.585
562 1 9.941971635445356 -4.92 -1.585
563 1 12.072394128755075 -6.15 -1.585
564 1 14.202816622064793 -7.38 -1.585
565 1 16.333239115374514 -8.61 -1.585
566 1 18.463661608684234 -9.84 -1.585
567 1 20.594084101993953 -11.07 -1.585
568 1 22.724506595303673 -12.3 -1.585
569 1 24.854929088613392 -13.53 -1.585
570 1 26.98535158192311 -14.76 -1.585
571 1 29.115774075232828 -15.99 -1.585
572 1 31.246196568542548 -17.22 -1.585
573 1 33.37661906185227 -18.45 -1.585
574 1 35.50704155516198 -19.68 -1.585
575 1 -34.796900724058744 23.37 -1.585
576 1 -32.66647823074903 22.14 -1.585
577 1 -30.536055737439305 20.91 -1.585
578 1 -28.405633244129586 19.68 -1.585
579 1 -26.275210750819866 18.45 -1.585
580 1 -24.144788257510147 17.22 -1.585
581 1 -22.01436576420043 15.989999999999998 -1.585
582 1 -19.88394327089071 14.760000000000002 -1.585
583 1 -17.75352077758099 13.530000000000001 -1.585
584 1 -15.623098284271274 12.3 -1.585
585 1 -13.492675790961554 11.07 -1.585
586 1 -11.362253297651835 9.84 -1.585
587 1 -9.231830804342117 8.61 -1.585
588 1 -7.101408311032397 7.38 -1.585
589 1 -4.970985817722678 6.15 -1.585
590 1 -2.840563324412959 4.92 -1.585
591 1 -0.7101408311032398 3.69 -1.585
592 1 1.4202816622064793 2.46 -1.585
593 1 3.5507041555161987 1.23 -1.585
594 1 5.681126648825917 0.0 -1.585
595 1 7.811549142135636 -1.23 -1.585
596 1 9.941971635445356 -2.46 -1.585
597 1 12.072394128755075 -3.6900000000000004 -1.585
598 1 14.202816622064793 -4.92 -1.585
599 1 16.333239115374514 -6.1499999999999995 -1.585
600 1 18.463661608684234 -7.38 -1.585
601 1 20.594084101993953 -8.61 -1.585
602 1 22.724506595303673 -9.84 -1.585
603 1 24.854929088613392 -11.07 -1.585
604 1 26.98535158192311 -12.3 -1.585
605 1 29.115774075232828 -13.530000000000001 -1.585
606 1 31.246196568542548 -14.759999999999998 -1.585
607 1 33.37661906185227 -15.989999999999998 -1.585
608 1 35.50704155516198 -17.22 -1.585
609 1 37.6374640484717 -18.45 -1.585
610 1 -32.66647823074903 24.6 -1.585
611 1 -30.536055737439305 23.369999999999997 -1.585
612 1 -28.405633244129586 22.14 -1.585
613 1 -26.275210750819866 20.91 -1.585
614 1 -24.144788257510147 19.68 -1.585
615 1 -22.01436576420043 18.45 -1.585
616 1 -19.88394327089071 17.22 -1.585
617 1 -17.75352077758099 15.99 -1.585
618 1 -15.623098284271274 14.76 -1.585
619 1 -13.492675790961554 13.53 -1.585
620 1 -11.362253297651835 12.3 -1.585
621 1 -9.231830804342117 11.07 -1.585
622 1 -7.101408311032397 9.84 -1.585
623 1 -4.970985817722678 8.61 -1.585
624 1 -2.840563324412959 7.38 -1.585
625 1 -0.7101408311032398 6.15 -1.585
626 1 1.4202816622064793 4.92 -1.585
627 1 3.5507041555161987 3.69 -1.585
628 1 5.681126648825917 2.46 -1.585
629 1 7.811549142135636 1.23 -1.585
630 1 9.941971635445356 0.0 -1.585
631 1 12.072394128755075 -1.2300000000000004 -1.585
632 1 14.202816622064793 -2.46 -1.585
633 1 16.333239115374514 -3.6899999999999995 -1.585
634 1 18.463661608684234 -4.92 -1.585
635 1 20.594084101993953 -6.15 -1.585
636 1 22.724506595303673 -7.380000000000001 -1.585
637 1 24.854929088613392 -8.61 -1.585
638 1 26.98535158192311 -9.84 -1.585
639 1 29.115774075232828 -11.07 -1.585
640 1 31.246196568542548 -12.299999999999999 -1.585
641 1 33.37661906185227 -13.53 -1.585
642 1 35.50704155516198 -14.76 -1.585
643 1 37.6374640484717 -15.99 -1.585
644 1 -32.66647823074903 27.06 -1.585
645 1 -30.536055737439305 25.83 -1.585
646 1 -28.405633244129586 24.599999999999998 -1.585
647 1 -26.275210750819866 23.37 -1.585
648 1 -24.144788257510147 22.14 -1.585
649 1 -22.01436576420043 20.91 -1.585
650 1 -19.88394327089071 19.68 -1.585
651 1 -17.75352077758099 18.45 -1.585
652 1 -15.623098284271274 17.22 -1.585
653 1 -13.492675790961554 15.989999999999998 -1.585
654 1 -11.362253297651835 14.76 -1.585
655 1 -9.231830804342117 13.530000000000001 -1.585
656 1 -7.101408311032397 12.3 -1.585
657 1 -4.970985817722678 11.07 -1.585
658 1 -2.840563324412959 9.84 -1.585
659 1 -0.7101408311032398 8.61 -1.585
660 1 1.4202816622064793 7.38 -1.585
661 1 3.5507041555161987 6.15 -1.585
662 1 5.681126648825917 4.92 -1.585
663 1 7.811549142135636 3.69 -1.585
664 1 9.941971635445356 2.46 -1.585
665 1 12.072394128755075 1.2299999999999995 -1.585
666 1 14.202816622064793 0.0 -1.585
667 1 16.333239115374514 -1.2299999999999995 -1.585
668 1 18.463661608684234 -2.46 -1.585
669 1 20.594084101993953 -3.6900000000000004 -1.585
670 1 22.724506595303673 -4.920000000000001 -1.585
671 1 24.854929088613392 -6.1499999999999995 -1.585
672 1 26.98535158192311 -7.38 -1.585
673 1 29.115774075232828 -8.61 -1.585
674 1 31.246196568542548 -9.84 -1.585
675 1 33.37661906185227 -11.07 -1.585
676 1 35.50704155516198 -12.3 -1.585
677 1 37.6374640484717 -13.530000000000001 -1.585
678 1 39.76788654178142 -14.760000000000002 -1.585
679 1 -30.536055737439305 28.29 -1.585
680 1 -28.405633244129586 27.06 -1.585
681 1 -26.275210750819866 25.83 -1.585
682 1 -24.144788257510147 24.6 -1.585
683 1 -22.01436576420043 23.369999999999997 -1.585
684 1 -19.88394327089071 22.14 -1.585
685 1 -17.75352077758099 20.91 -1.585
686 1 -15.623098284271274 19.68 -1.585
687 1 -13.492675790961554 18.45 -1.585
688 1 -11.362253297651835 17.22 -1.585
689 1 -9.231830804342117 15.99 -1.585
690 1 -7.101408311032397 14.76 -1.585
691 1 -4.970985817722678 13.53 -1.585
692 1 -2.840563324412959 12.3 -1.585
693 1 -0.7101408311032398 11.07 -1.585
694 1 1.4202816622064793 9.84 -1.585
695 1 3.5507041555161987 8.61 -1.585
696 1 5.681126648825917 7.38 -1.585
697 1 7.811549142135636 6.15 -1.585
698 1 9.941971635445356 4.92 -1.585
699 1 12.072394128755075 3.6899999999999995 -1.585
700 1 14.202816622064793 2.46 -1.585
701 1 16.333239115374514 1.2300000000000004 -1.585
702 1 18.463661608684234 0.0 -1.585
703 1 20.594084101993953 -1.2300000000000004 -1.585
704 1 22.724506595303673 -2.460000000000001 -1.585
705 1 24.854929088613392 -3.6899999999999995 -1.585
706 1 26.98535158192311 -4.92 -1.585
707 1 29.115774075232828 -6.15 -1.585
708 1 31.246196568542548 -7.379999999999999 -1.585
709 1 33.37661906185227 -8.61 -1.585
710 1 35.50704155516198 -9.84 -1.585
711 1 37.6374640484717 -11.07 -1.585
712 1 39.76788654178142 -12.3 -1.585
713 1 -28.405633244129586 29.52 -1.585
714 1 -26.275210750819866 28.29 -1.585
715 1 -24.144788257510147 27.06 -1.585
716 1 -22.01436576420043 25.83 -1.585
717 1 -19.88394327089071 24.6 -1.585
718 1 -17.75352077758099 23.37 -1.585
719 1 -15.623098284271274 22.14 -1.585
720 1 -13.492675790961554 20.91 -1.585
721 1 -11.362253297651835 19.68 -1.585
722 1 -9.231830804342117 18.45 -1.585
723 1 -7.101408311032397 17.22 -1.585
724 1 -4.970985817722678 15.99 -1.585