4336
 Atoms. Timestep: 0
C -26.2752 -33.21 -1.585
C -24.1448 -34.44 -1.585
C -22.0144 -35.67 -1.585
C -19.8839 -36.9 -1.585
C -17.7535 -38.13 -1.585
C -15.6231 -39.36 -1.585
C -32.6665 -27.06 -1.585
C -30.5361 -28.29 -1.585
C -28.4056 -29.52 -1.585
C -26.2752 -30.75 -1.585
C -24.1448 -31.98 -1.585
C -22.0144 -33.21 -1.585
C -19.8839 -34.44 -1.585
C -17.7535 -35.67 -1.585
C -15.6231 -36.9 -1.585
C -13.4927 -38.13 -1.585
C -11.3623 -39.36 -1.585
C -9.23183 -40.59 -1.585
C -7.10141 -41.82 -1.585
C -34.7969 -23.37 -1.585
C -32.6665 -24.6 -1.585
C -30.5361 -25.83 -1.585
C -28.4056 -27.06 -1.585
C -26.2752 -28.29 -1.585
C -24.1448 -29.52 -1.585
C -22.0144 -30.75 -1.585
C -19.8839 -31.98 -1.585
C -17.7535 -33.21 -1.585
C -15.6231 -34.44 -1.585
C -13.4927 -35.67 -1.585
C -11.3623 -36.9 -1.585
C -9.23183 -38.13 -1.585
C -7.10141 -39.36 -1.585
C -4.97099 -40.59 -1.585
C -2.84056 -41.82 -1.585
C -36.9273 -19.68 -1.585
C -34.7969 -20.91 -1.585
C -32.6665 -22.14 -1.585
C -30.5361 -23.37 -1.585
C -28.4056 -24.6 -1.585
C -26.2752 -25.83 -1.585
C -24.1448 -27.06 -1.585
C -22.0144 -28.29 -1.585
C -19.8839 -29.52 -1.585
C -17.7535 -30.75 -1.585
C -15.6231 -31.98 -1.585
C -13.4927 -33.21 -1.585
C -11.3623 -34.44 -1.585
C -9.23183 -35.67 -1.585
C -7.10141 -36.9 -1.585
C -4.97099 -38.13 -1.585
C -2.84056 -39.36 -1.585
C -0.710141 -40.59 -1.585
C 1.42028 -41.82 -1.585
C -39.0577 -15.99 -1.585
C -36.9273 -17.22 -1.585
C -34.7969 -18.45 -1.585
C -32.6665 -19.68 -1.585
C -30.5361 -20.91 -1.585
C -28.4056 -22.14 -1.585
C -26.2752 -23.37 -1.585
C -24.1448 -24.6 -1.585
C -22.0144 -25.83 -1.585
C -19.8839 -27.06 -1.585
C -17.7535 -28.29 -1.585
C -15.6231 -29.52 -1.585
C -13.4927 -30.75 -1.585
C -11.3623 -31.98 -1.585
C -9.23183 -33.21 -1.585
C -7.10141 -34.44 -1.585
C -4.97099 -35.67 -1.585
C -2.84056 -36.9 -1.585
C -0.710141 -38.13 -1.585
C 1.42028 -39.36 -1.585
C 3.5507 -40.59 -1.585
C 5.68113 -41.82 -1.585
C -39.0577 -13.53 -1.585
C -36.9273 -14.76 -1.585
C -34.7969 -15.99 -1.585
C -32.6665 -17.22 -1.585
C -30.5361 -18.45 -1.585
C -28.4056 -19.68 -1.585
C -26.2752 -20.91 -1.585
C -24.1448 -22.14 -1.585
C -22.0151 -23.3697 -1.58641
C -19.8835 -24.6001 -1.59004
C -17.7539 -25.8297 -1.58968
C -15.6225 -27.0604 -1.58527
C -13.4921 -28.2893 -1.5873
C -11.3623 -29.52 -1.585
C -9.23183 -30.75 -1.585
C -7.10141 -31.98 -1.585
C -4.97099 -33.21 -1.585
C -2.84056 -34.44 -1.585
C -0.710141 -35.67 -1.585
C 1.42028 -36.9 -1.585
C 3.5507 -38.13 -1.585
C 5.68113 -39.36 -1.585
C 7.81155 -40.59 -1.585
C -41.1882 -9.84 -1.585
C -39.0577 -11.07 -1.585
C -36.9273 -12.3 -1.585
C -34.7969 -13.53 -1.585
C -32.6665 -14.76 -1.585
C -30.5361 -15.99 -1.585
C -28.4056 -17.22 -1.585
C -26.2755 -18.4502 -1.59111
C -24.1451 -19.6801 -1.59326
C -22.0143 -20.91 -1.59051
C -19.8839 -22.1399 -1.59342
C -17.7534 -23.3698 -1.58917
C -15.623 -24.5999 -1.5904
C -13.4926 -25.8297 -1.58493
C -11.362 -27.0602 -1.5861
C -9.23189 -28.2905 -1.58526
C -7.10112 -29.5203 -1.58407
C -4.97099 -30.75 -1.585
C -2.84056 -31.98 -1.585
C -0.710141 -33.21 -1.585
C 1.42028 -34.44 -1.585
C 3.5507 -35.67 -1.585
C 5.68113 -36.9 -1.585
C 7.81155 -38.13 -1.585
C 9.94197 -39.36 -1.585
C 12.0724 -40.59 -1.585
C -41.1882 -7.38 -1.585
C -39.0577 -8.61 -1.585
C -36.9273 -9.84 -1.585
C -34.7969 -11.07 -1.585
C -32.6665 -12.3 -1.585
C -30.5361 -13.53 -1.585
C -28.4056 -14.76 -1.59481
C -26.2752 -15.9905 -1.58855
C -24.1448 -17.22 -1.58401
C -22.0146 -18.45 -1.58666
C -19.884 -19.6797 -1.58419
C -17.7539 -20.9098 -1.58128
C -15.6227 -22.1402 -1.57924
C -13.4925 -23.3699 -1.57689
C -11.3621 -24.6003 -1.57353
C -9.23171 -25.8302 -1.56771
C -7.10168 -27.0605 -1.57311
C -4.97084 -28.29 -1.58364
C -2.84071 -29.5197 -1.58591
C -0.710141 -30.75 -1.585
C 1.42028 -31.98 -1.585
C 3.5507 -33.21 -1.585
C 5.68113 -34.44 -1.585
C 7.81155 -35.67 -1.585
C 9.94197 -36.9 -1.585
C 12.0724 -38.13 -1.585
C 14.2028 -39.36 -1.585
C -41.1882 -4.92 -1.585
C -39.0577 -6.15 -1.585
C -36.9273 -7.38 -1.585
C -34.7969 -8.61 -1.585
C -32.6665 -9.84 -1.585
C -30.5352 -11.0692 -1.59212
C -28.4054 -12.3001 -1.59601
C -26.2751 -13.5294 -1.5917
C -24.1457 -14.76 -1.58142
C -22.0143 -15.9905 -1.58259
C -19.8839 -17.2198 -1.58024
C -17.7536 -18.45 -1.56711
C -15.6227 -19.6792 -1.56089
C -13.4926 -20.9101 -1.56148
C -11.3621 -22.1398 -1.56667
C -9.23234 -23.3703 -1.56258
C -7.10092 -24.601 -1.55888
C -4.9705 -25.8298 -1.56776
C -2.84059 -27.0598 -1.5733
C -0.709726 -28.2888 -1.57462
C 1.41982 -29.5195 -1.57907
C 3.5507 -30.75 -1.585
C 5.68113 -31.98 -1.585
C 7.81155 -33.21 -1.585
C 9.94197 -34.44 -1.585
C 12.0724 -35.67 -1.585
C 14.2028 -36.9 -1.585
C 16.3332 -38.13 -1.585
C -41.1882 -2.46 -1.585
C -39.0577 -3.69 -1.585
C -36.9273 -4.92 -1.585
C -34.7969 -6.15 -1.585
C -32.6661 -7.37941 -1.59518
C -30.5361 -8.60963 -1.60111
C -28.4047 -9.84025 -1.60605
C -26.275 -11.0696 -1.60045
C -24.1447 -12.2999 -1.58589
C -22.0143 -13.5295 -1.58431
C -19.884 -14.76 -1.5778
C -17.7536 -15.9895 -1.57376
C -15.6237 -17.2197 -1.5655
C -13.4921 -18.4504 -1.56279
C -11.3618 -19.6799 -1.56363
C -9.23175 -20.9102 -1.56
C -7.10106 -22.1398 -1.56094
C -4.97091 -23.37 -1.55796
C -2.84034 -24.5997 -1.56785
C -0.7107 -25.8293 -1.57189
C 1.42063 -27.0597 -1.57377
C 3.55097 -28.2893 -1.58692
C 5.68102 -29.52 -1.58785
C 7.81155 -30.75 -1.585
C 9.94197 -31.98 -1.585
C 12.0724 -33.21 -1.585
C 14.2028 -34.44 -1.585
C 16.3332 -35.67 -1.585
C 18.4637 -36.9 -1.585
C -41.1882 1.77636e-15 -1.585
C -39.0577 -1.23 -1.585
C -36.9273 -2.46 -1.585
C -34.7969 -3.69 -1.585
C -32.6663 -4.9202 -1.59553
C -30.5355 -6.14995 -1.60913
C -28.4051 -7.3799 -1.61628
C -26.2748 -8.60978 -1.60618
C -24.1448 -9.83999 -1.59797
C -22.0144 -11.0699 -1.58966
C -19.8838 -12.3002 -1.58522
C -17.7535 -13.5305 -1.57845
C -15.6229 -14.7599 -1.57662
C -13.4925 -15.9899 -1.58112
C -11.3622 -17.2199 -1.57061
C -9.23219 -18.4503 -1.56572
C -7.10158 -19.6801 -1.56578
C -4.97089 -20.9101 -1.56414
C -2.84053 -22.1401 -1.56541
C -0.710081 -23.3696 -1.56872
C 1.42019 -24.5995 -1.57839
C 3.55056 -25.8295 -1.57999
C 5.6808 -27.06 -1.58881
C 7.81139 -28.2902 -1.59112
C 9.94197 -29.52 -1.585
C 12.0724 -30.75 -1.585
C 14.2028 -31.98 -1.585
C 16.3332 -33.21 -1.585
C 18.4637 -34.44 -1.585
C 20.5941 -35.67 -1.585
C -41.1882 2.46 -1.585
C -39.0577 1.23 -1.585
C -36.9273 8.88178e-16 -1.585
C -34.7969 -1.23 -1.585
C -32.6659 -2.45993 -1.59002
C -30.536 -3.6904 -1.60486
C -28.4051 -4.91997 -1.61653
C -26.275 -6.14984 -1.61347
C -24.1439 -7.38047 -1.60003
C -22.0138 -8.60991 -1.59398
C -19.8838 -9.84017 -1.59204
C -17.7535 -11.0699 -1.58042
C -15.6236 -12.3001 -1.57955
C -13.4925 -13.53 -1.59148
C -11.3622 -14.76 -1.58912
C -9.23158 -15.9906 -1.57221
C -7.10126 -17.22 -1.56782
C -4.97117 -18.45 -1.57303
C -2.84078 -19.6795 -1.56686
C -0.710978 -20.9095 -1.5661
C 1.42031 -22.1397 -1.57613
C 3.55051 -23.3695 -1.57953
C 5.68085 -24.6002 -1.5759
C 7.81142 -25.8298 -1.57822
C 9.94156 -27.06 -1.58467
C 12.0724 -28.29 -1.585
C 14.2028 -29.52 -1.585
C 16.3332 -30.75 -1.585
C 18.4637 -31.98 -1.585
C 20.5941 -33.21 -1.585
C 22.7245 -34.44 -1.585
C -41.1882 4.92 -1.585
C -39.0577 3.69 -1.585
C -36.9273 2.46 -1.585
C -34.7969 1.23 -1.585
C -32.6674 -0.000218522 -1.59617
C -30.5355 -1.23095 -1.60439
C -28.4049 -2.45979 -1.61205
C -26.2749 -3.68993 -1.60927
C -24.1439 -4.91912 -1.60067
C -22.0141 -6.14993 -1.59573
C -19.8835 -7.38005 -1.6056
C -17.7537 -8.6101 -1.60134
C -15.6225 -9.8406 -1.58706
C -13.492 -11.0695 -1.59189
C -11.3622 -12.3 -1.59683
C -9.23155 -13.5292 -1.58823
C -7.10208 -14.7599 -1.58007
C -4.97095 -15.9903 -1.59051
C -2.84086 -17.2197 -1.5882
C -0.71015 -18.4499 -1.57037
C 1.4206 -19.6788 -1.56931
C 3.55058 -20.9097 -1.57438
C 5.68093 -22.1392 -1.57601
C 7.81042 -23.3699 -1.57456
C 9.94203 -24.6006 -1.58369
C 12.0726 -25.8297 -1.58849
C 14.2028 -27.06 -1.585
C 16.3332 -28.29 -1.585
C 18.4637 -29.52 -1.585
C 20.5941 -30.75 -1.585
C 22.7245 -31.98 -1.585
C 24.8549 -33.21 -1.585
C -41.1882 7.38 -1.585
C -39.0577 6.15 -1.585
C -36.9273 4.92 -1.585
C -34.7969 3.69 -1.585
C -32.6662 2.4599 -1.59718
C -30.5358 1.2301 -1.61571
C -28.4054 -8.59697e-06 -1.61283
C -26.2749 -1.22986 -1.61447
C -24.1449 -2.45957 -1.61105
C -22.0136 -3.69003 -1.6054
C -19.8833 -4.91989 -1.61259
C -17.7532 -6.15016 -1.61422
C -15.6227 -7.37978 -1.61302
C -13.4925 -8.60977 -1.60444
C -11.3617 -9.84002 -1.61139
C -9.23212 -11.0695 -1.61074
C -7.10123 -12.2998 -1.60226
C -4.97093 -13.5296 -1.60899
C -2.84086 -14.76 -1.60678
C -0.710306 -15.9894 -1.59861
C 1.41992 -17.2194 -1.58333
C 3.55115 -18.4499 -1.58346
C 5.681 -19.6796 -1.58223
C 7.81139 -20.9098 -1.5784
C 9.9418 -22.1396 -1.5873
C 12.0721 -23.3698 -1.58832
C 14.2026 -24.5998 -1.58952
C 16.3332 -25.83 -1.585
C 18.4637 -27.06 -1.585
C 20.5941 -28.29 -1.585
C 22.7245 -29.52 -1.585
C 24.8549 -30.75 -1.585
C 26.9854 -31.98 -1.585
C -41.1882 9.84 -1.585
C -39.0577 8.61 -1.585
C -36.9273 7.38 -1.585
C -34.7969 6.15 -1.585
C -32.6671 4.91965 -1.59862
C -30.5361 3.68992 -1.61909
C -28.4056 2.45986 -1.62179
C -26.2751 1.22962 -1.61673
C -24.1446 0.000160191 -1.61568
C -22.0143 -1.22982 -1.62117
C -19.8839 -2.45984 -1.6167
C -17.7538 -3.69027 -1.61957
C -15.623 -4.92021 -1.62402
C -13.4924 -6.15001 -1.62373
C -11.362 -7.38004 -1.62709
C -9.23169 -8.60975 -1.62647
C -7.10155 -9.8398 -1.62887
C -4.97113 -11.0698 -1.62561
C -2.84083 -12.3001 -1.62494
C -0.710315 -13.5304 -1.61709
C 1.42036 -14.7599 -1.60672
C 3.55081 -15.9899 -1.6031
C 5.68115 -17.2198 -1.59123
C 7.81114 -18.4501 -1.58668
C 9.94171 -19.68 -1.58753
C 12.0721 -20.91 -1.58957
C 14.2025 -22.1405 -1.58754
C 16.3332 -23.37 -1.58601
C 18.4637 -24.6 -1.585
C 20.5941 -25.83 -1.585
C 22.7245 -27.06 -1.585
C 24.8549 -28.29 -1.585
C 26.9854 -29.52 -1.585
C 29.1158 -30.75 -1.585
C -39.0577 11.07 -1.585
C -36.9273 9.84 -1.585
C -34.7969 8.61 -1.585
C -32.6657 7.37924 -1.59468
C -30.5355 6.15012 -1.61314
C -28.4056 4.9199 -1.62398
C -26.2753 3.69046 -1.61732
C -24.1456 2.46025 -1.61508
C -22.0142 1.22995 -1.62625
C -19.8839 0.000149309 -1.62711
C -17.7535 -1.23042 -1.61651
C -15.6229 -2.45979 -1.61645
C -13.4927 -3.69016 -1.62691
C -11.3621 -4.91958 -1.63525
C -9.23223 -6.14965 -1.63942
C -7.10097 -7.38015 -1.64237
C -4.97077 -8.60967 -1.64173
C -2.84071 -9.84021 -1.63416
C -0.710111 -11.0698 -1.62261
C 1.41994 -12.3003 -1.61794
C 3.55082 -13.5299 -1.61944
C 5.68096 -14.7599 -1.61038
C 7.81213 -15.9905 -1.59234
C 9.94231 -17.2198 -1.5864
C 12.0722 -18.45 -1.58637
C 14.2026 -19.6796 -1.57958
C 16.3322 -20.91 -1.58321
C 18.4636 -22.1402 -1.59471
C 20.5941 -23.37 -1.585
C 22.7245 -24.6 -1.585
C 24.8549 -25.83 -1.585
C 26.9854 -27.06 -1.585
C 29.1158 -28.29 -1.585
C -39.0577 13.53 -1.585
C -36.9273 12.3 -1.585
C -34.7969 11.07 -1.585
C -32.6658 9.84057 -1.59456
C -30.5362 8.61001 -1.61257
C -28.4051 7.37969 -1.63169
C -26.2753 6.15034 -1.63113
C -24.1447 4.92006 -1.61688
C -22.014 3.6909 -1.62131
C -19.884 2.46004 -1.62672
C -17.7535 1.23058 -1.62643
C -15.6239 -1.79958e-05 -1.62202
C -13.4923 -1.2306 -1.63122
C -11.362 -2.4596 -1.64055
C -9.23172 -3.68968 -1.64035
C -7.10083 -4.91896 -1.64514
C -4.97079 -6.14978 -1.64741
C -2.84041 -7.37961 -1.65154
C -0.710888 -8.61009 -1.64319
C 1.42063 -9.8408 -1.6323
C 3.55118 -11.0698 -1.62933
C 5.68116 -12.3 -1.61955
C 7.81213 -13.5292 -1.60495
C 9.94195 -14.7598 -1.59125
C 12.0726 -15.9899 -1.5956
C 14.2022 -17.2198 -1.59124
C 16.3332 -18.4503 -1.5821
C 18.4638 -19.6793 -1.59224
C 20.594 -20.9101 -1.5905
C 22.7245 -22.14 -1.585
C 24.8549 -23.37 -1.585
C 26.9854 -24.6 -1.585
C 29.1158 -25.83 -1.585
C 31.2462 -27.06 -1.585
C -39.0577 15.99 -1.585
C -36.9273 14.76 -1.585
C -34.7969 13.53 -1.585
C -32.6665 12.3 -1.585
C -30.5355 11.0699 -1.61128
C -28.4053 9.84022 -1.6352
C -26.2751 8.6102 -1.63729
C -24.1448 7.38034 -1.63378
C -22.0145 6.15037 -1.62524
C -19.8835 4.91983 -1.63009
C -17.7536 3.68984 -1.63159
C -15.623 2.45995 -1.63079
C -13.4926 1.23013 -1.64094
C -11.3623 0.000192531 -1.641
C -9.23204 -1.22968 -1.64526
C -7.10162 -2.4595 -1.64833
C -4.97046 -3.68995 -1.65273
C -2.84022 -4.92008 -1.65645
C -0.709951 -6.15005 -1.65595
C 1.42036 -7.38 -1.65598
C 3.55059 -8.61003 -1.64084
C 5.68096 -9.84017 -1.63235
C 7.81118 -11.0697 -1.62072
C 9.94231 -12.2999 -1.60579
C 12.0726 -13.5298 -1.60296
C 14.2028 -14.7599 -1.59894
C 16.3331 -15.9897 -1.5982
C 18.4633 -17.2197 -1.59311
C 20.5942 -18.4501 -1.59745
C 22.7245 -19.68 -1.585
C 24.8549 -20.91 -1.585
C 26.9854 -22.14 -1.585
C 29.1158 -23.37 -1.585
C 31.2462 -24.6 -1.585
C 33.3766 -25.83 -1.585
C -36.9273 17.22 -1.585
C -34.7969 15.99 -1.585
C -32.6665 14.76 -1.585
C -30.5365 13.53 -1.60073
C -28.4057 12.3002 -1.6265
C -26.2754 11.0701 -1.6366
C -24.1445 9.83967 -1.63446
C -22.0141 8.61006 -1.63138
C -19.8837 7.37983 -1.63359
C -17.7534 6.14989 -1.62866
C -15.6234 4.91963 -1.63151
C -13.4926 3.68987 -1.6395
C -11.3623 2.46004 -1.64175
C -9.23168 1.22953 -1.63687
C -7.10119 0.000201977 -1.6416
C -4.97084 -1.22976 -1.65411
C -2.84048 -2.45976 -1.65039
C -0.710593 -3.69019 -1.65177
C 1.42035 -4.9201 -1.65886
C 3.5506 -6.15011 -1.6536
C 5.68095 -7.38051 -1.6376
C 7.8114 -8.60994 -1.62559
C 9.94173 -9.83983 -1.62039
C 12.0722 -11.0696 -1.60594
C 14.2021 -12.2999 -1.59949
C 16.3331 -13.53 -1.59957
C 18.4634 -14.7598 -1.59917
C 20.5937 -15.9901 -1.59998
C 22.7242 -17.2197 -1.58976
C 24.8549 -18.45 -1.585
C 26.9854 -19.68 -1.585
C 29.1158 -20.91 -1.585
C 31.2462 -22.14 -1.585
C 33.3766 -23.37 -1.585
C -36.9273 19.68 -1.585
C -34.7969 18.45 -1.585
C -32.6665 17.22 -1.585
C -30.5361 15.99 -1.585
C -28.4057 14.7603 -1.61532
C -26.2754 13.5299 -1.62451
C -24.1445 12.3005 -1.62257
C -22.0144 11.0698 -1.62497
C -19.8836 9.84001 -1.63581
C -17.7537 8.60978 -1.63548
C -15.6224 7.37911 -1.62657
C -13.4921 6.15013 -1.62918
C -11.3623 4.91992 -1.63107
C -9.23166 3.69064 -1.62365
C -7.102 2.46008 -1.62597
C -4.97087 1.23005 -1.64699
C -2.84058 0.000108053 -1.65164
C -0.709696 -1.23055 -1.63838
C 1.4208 -2.45961 -1.6403
C 3.55066 -3.69012 -1.64648
C 5.68094 -4.91941 -1.63772
C 7.81041 -6.14982 -1.62673
C 9.94184 -7.38017 -1.6272
C 12.0722 -8.6097 -1.61647
C 14.2026 -9.84005 -1.59417
C 16.3333 -11.0693 -1.58644
C 18.4633 -12.3 -1.59206
C 20.5938 -13.5295 -1.60054
C 22.7234 -14.7599 -1.59812
C 24.8549 -15.99 -1.585
C 26.9854 -17.22 -1.585
C 29.1158 -18.45 -1.585
C 31.2462 -19.68 -1.585
C 33.3766 -20.91 -1.585
C 35.507 -22.14 -1.585
C -34.7969 20.91 -1.585
C -32.6665 19.68 -1.585
C -30.5361 18.45 -1.585
C -28.406 17.22 -1.59773
C -26.2754 15.9904 -1.62471
C -24.1455 14.7601 -1.62903
C -22.0139 13.5294 -1.62764
C -19.8833 12.3001 -1.63365
C -17.7533 11.0698 -1.63423
C -15.6224 9.84033 -1.63214
C -13.4924 8.60995 -1.62471
C -11.3618 7.3801 -1.63096
C -9.23234 6.15033 -1.62697
C -7.10114 4.91984 -1.61825
C -4.97062 3.69055 -1.63047
C -2.84059 2.45994 -1.63938
C -0.709803 1.23057 -1.63832
C 1.42011 0.000119156 -1.63116
C 3.55129 -1.23024 -1.64123
C 5.68092 -2.45955 -1.64099
C 7.8114 -3.68983 -1.6271
C 9.94196 -4.91925 -1.62615
C 12.0721 -6.14989 -1.61863
C 14.2026 -7.37929 -1.60683
C 16.3324 -8.60969 -1.59232
C 18.4639 -9.84033 -1.5935
C 20.5941 -11.0696 -1.59984
C 22.7241 -12.2998 -1.59939
C 24.8549 -13.5292 -1.59368
C 26.9854 -14.76 -1.585
C 29.1158 -15.99 -1.585
C 31.2462 -17.22 -1.585
C 33.3766 -18.45 -1.585
C 35.507 -19.68 -1.585
C -34.7969 23.37 -1.585
C -32.6665 22.14 -1.585
C -30.5361 20.91 -1.585
C -28.4056 19.68 -1.585
C -26.2753 18.4496 -1.61552
C -24.1447 17.2199 -1.63398
C -22.0144 15.99 -1.64412
C -19.884 14.76 -1.63695
C -17.7538 13.5296 -1.63627
C -15.6233 12.2999 -1.63635
C -13.4923 11.0698 -1.63105
C -11.362 9.83989 -1.63065
C -9.23165 8.61018 -1.62763
C -7.10143 7.3802 -1.62715
C -4.97113 6.15021 -1.62017
C -2.84067 4.91969 -1.62614
C -0.710353 3.68978 -1.62954
C 1.42056 2.45998 -1.62875
C 3.55095 1.23008 -1.63753
C 5.68125 0.000268569 -1.63674
C 7.81137 -1.22975 -1.63467
C 9.94167 -2.45973 -1.62617
C 12.0724 -3.69014 -1.62217
C 14.2025 -4.92031 -1.61228
C 16.3332 -6.14989 -1.60358
C 18.4635 -7.37981 -1.606
C 20.5938 -8.60971 -1.60025
C 22.7239 -9.83992 -1.60215
C 24.8543 -11.0698 -1.60073
C 26.9854 -12.3 -1.685
C 29.1158 -13.53 -1.585
C 31.2462 -14.76 -1.585
C 33.3766 -15.99 -1.585
C 35.507 -17.22 -1.585
C 37.6375 -18.45 -1.585
C -32.6665 24.6 -1.585
C -30.5361 23.37 -1.585
C -28.4056 22.14 -1.585
C -26.275 20.9101 -1.59571
C -24.1454 19.6796 -1.62366
C -22.0143 18.4498 -1.64501
C -19.8841 17.2199 -1.64636
C -17.7536 15.9893 -1.63442
C -15.6231 14.7598 -1.63102
C -13.4928 13.5299 -1.6352
C -11.3623 12.3003 -1.62782
C -9.23242 11.0702 -1.62336
C -7.10119 9.83998 -1.62415
C -4.97105 8.61013 -1.61969
C -2.84074 7.37955 -1.6121
C -0.710271 6.1498 -1.60885
C 1.41997 4.91966 -1.61692
C 3.55084 3.69007 -1.62615
C 5.68097 2.46023 -1.63043
C 7.81204 1.2297 -1.62732
C 9.94224 0.000179905 -1.62464
C 12.0724 -1.23019 -1.62165
C 14.2027 -2.46005 -1.60825
C 16.3327 -3.69029 -1.6034
C 18.4637 -4.92004 -1.60826
C 20.5939 -6.14987 -1.60559
C 22.7246 -7.38049 -1.59572
C 24.855 -8.60994 -1.59584
C 26.9853 -9.8402 -1.69363
C 29.1158 -11.07 -1.685
C 31.2462 -12.3 -1.585
C 33.3766 -13.53 -1.585
C 35.507 -14.76 -1.585
C 37.6375 -15.99 -1.585
C -32.6665 27.06 -1.585
C -30.5361 25.83 -1.585
C -28.4056 24.6 -1.585
C -26.2752 23.37 -1.585
C -24.1441 22.139 -1.60227
C -22.0137 20.9104 -1.62652
C -19.884 19.6798 -1.63975
C -17.7536 18.4505 -1.63607
C -15.6241 17.2199 -1.63096
C -13.4927 15.9895 -1.64017
C -11.3624 14.7602 -1.63703
C -9.23183 13.53 -1.61814
C -7.101 12.3009 -1.61165
C -4.97099 11.07 -1.61154
C -2.84065 9.84032 -1.61018
C -0.711115 8.60973 -1.60391
C 1.42043 7.37908 -1.60608
C 3.55094 6.15012 -1.61435
C 5.6811 4.92004 -1.61491
C 7.81209 3.69084 -1.61342
C 9.942 2.46003 -1.615
C 12.0726 1.23007 -1.62467
C 14.2024 -0.000221593 -1.61867
C 16.3337 -1.23087 -1.60277
C 18.4641 -2.45969 -1.60115
C 20.5939 -3.68997 -1.59984
C 22.7246 -4.91918 -1.59105
C 24.8542 -6.14987 -1.58898
C 26.9854 -7.38022 -1.59862
C 29.1158 -8.61 -1.585
C 31.2462 -9.84 -1.585
C 33.3766 -11.07 -1.585
C 35.507 -12.3 -1.585
C 37.6375 -13.53 -1.585
C 39.7679 -14.76 -1.585
C -30.5361 28.29 -1.585
C -28.4056 27.06 -1.585
C -26.2752 25.83 -1.585
C -24.1448 24.6 -1.585
C -22.0144 23.3701 -1.60975
C -19.8834 22.1397 -1.63398
C -17.7538 20.9102 -1.63999
C -15.6231 19.68 -1.63504
C -13.4927 18.4503 -1.64344
C -11.3625 17.2199 -1.6415
C -9.23193 15.9905 -1.63383
C -7.10185 14.7603 -1.61945
C -4.97042 13.5297 -1.61648
C -2.8404 12.3002 -1.61289
C -0.710241 11.0699 -1.60508
C 1.42032 9.84018 -1.60775
C 3.55057 8.60989 -1.60678
C 5.68106 7.38029 -1.61428
C 7.811 6.15036 -1.6163
C 9.94249 4.9198 -1.6161
C 12.0729 3.69019 -1.62292
C 14.2029 2.45982 -1.62237
C 16.3336 1.23017 -1.61767
C 18.4637 3.72309e-05 -1.60367
C 20.5944 -1.22995 -1.60419
C 22.7239 -2.45951 -1.59946
C 24.855 -3.6899 -1.59142
C 26.9855 -4.9195 -1.59699
C 29.1158 -6.15 -1.585
C 31.2462 -7.38 -1.585
C 33.3766 -8.61 -1.585
C 35.507 -9.84 -1.585
C 37.6375 -11.07 -1.585
C 39.7679 -12.3 -1.585
C -28.4056 29.52 -1.585
C -26.2752 28.29 -1.585
C -24.1448 27.06 -1.585
C -22.0139 25.83 -1.59392
C -19.8837 24.6 -1.62238
C -17.7534 23.37 -1.63453
C -15.6233 22.1399 -1.64245
C -13.4929 20.9099 -1.64447
C -11.3624 19.6797 -1.64704
C -9.23196 18.4494 -1.64087
C -7.10122 17.2199 -1.63376
C -4.97079 15.99 -1.63291
C -2.8405 14.7601 -1.61961
C -0.710504 13.5297 -1.61216
C 1.42004 12.2999 -1.61043
C 3.55064 11.0697 -1.61082
C 5.68099 9.83952 -1.61218
C 7.81157 8.6101 -1.61876
C 9.94189 7.3802 -1.62957
C 12.0723 6.15019 -1.62502
C 14.2023 4.91963 -1.62475
C 16.333 3.68981 -1.62466
C 18.4637 2.45985 -1.6169
C 20.5941 1.22986 -1.61116
C 22.7245 0.000261417 -1.60536
C 24.8547 -1.22972 -1.60631
C 26.9851 -2.45977 -1.59949
C 29.1157 -3.6902 -1.59093
C 31.2462 -4.92 -1.585
C 33.3766 -6.15 -1.585
C 35.507 -7.38 -1.585
C 37.6375 -8.61 -1.585
C 39.7679 -9.84 -1.585
C -26.2752 30.75 -1.585
C -24.1448 29.52 -1.585
C -22.0144 28.29 -1.585
C -19.8838 27.0603 -1.59438
C -17.7538 25.8301 -1.6216
C -15.6225 24.5995 -1.63455
C -13.4924 23.37 -1.6427
C -11.3623 22.1395 -1.64537
C -9.23185 20.9099 -1.63713
C -7.10182 19.6795 -1.63529
C -4.97077 18.4499 -1.64132
C -2.84051 17.22 -1.6342
C -0.709604 15.9893 -1.61531
C 1.42061 14.76 -1.61004
C 3.55061 13.5298 -1.61447
C 5.68091 12.3002 -1.60963
C 7.81068 11.0701 -1.61434
C 9.94192 9.84003 -1.63214
C 12.0722 8.61011 -1.63572
C 14.2027 7.37942 -1.62349
C 16.3332 6.14997 -1.61962
C 18.4633 4.91981 -1.62275
C 20.5939 3.69037 -1.61577
C 22.7238 2.46036 -1.60938
C 24.8551 1.22997 -1.60989
C 26.9854 0.0001607 -1.60529
C 29.1158 -1.23063 -1.59087
C 31.2462 -2.46 -1.585
C 33.3766 -3.69 -1.585
C 35.507 -4.92 -1.585
C 37.6375 -6.15 -1.585
C 39.7679 -7.38 -1.585
C -26.2752 33.21 -1.585
C -24.1448 31.98 -1.585
C -22.0144 30.75 -1.585
C -19.8839 29.52 -1.585
C -17.7534 28.2896 -1.59063
C -15.6225 27.0607 -1.61429
C -13.4926 25.8298 -1.63195
C -11.362 24.5999 -1.65027
C -9.23244 23.3696 -1.64935
C -7.10099 22.139 -1.63865
C -4.97043 20.9102 -1.63986
C -2.84049 19.6799 -1.63636
C -0.709597 18.4507 -1.62365
C 1.42006 17.22 -1.61449
C 3.55095 15.9898 -1.62622
C 5.68081 14.7601 -1.62637
C 7.81175 13.5297 -1.61493
C 9.94238 12.3008 -1.62382
C 12.0723 11.07 -1.63462
C 14.2028 9.84062 -1.63314
C 16.3323 8.60994 -1.62633
C 18.4637 7.37941 -1.63276
C 20.5939 6.15021 -1.62963
C 22.7243 4.92015 -1.61186
C 24.8553 3.69108 -1.60502
C 26.9852 2.46015 -1.60072
C 29.1158 1.23043 -1.59251
C 31.2462 8.88178e-16 -1.585
C 33.3766 -1.23 -1.585
C 35.507 -2.46 -1.585
C 37.6375 -3.69 -1.585
C 39.7679 -4.92 -1.585
C 41.8983 -6.15 -1.585
C -24.1448 34.44 -1.585
C -22.0144 33.21 -1.585
C -19.8839 31.98 -1.585
C -17.7535 30.75 -1.585
C -15.6237 29.5201 -1.59206
C -13.4922 28.2896 -1.61844
C -11.3619 27.0598 -1.64375
C -9.23175 25.8296 -1.65385
C -7.10125 24.5999 -1.65587
C -4.97099 23.3699 -1.64415
C -2.84037 22.1399 -1.64309
C -0.710513 20.9104 -1.63687
C 1.42065 19.6801 -1.62702
C 3.551 18.4502 -1.63447
C 5.68115 17.22 -1.63683
C 7.81164 15.9903 -1.63616
C 9.94191 14.7603 -1.62937
C 12.0729 13.5298 -1.63904
C 14.2026 12.3002 -1.64285
C 16.3333 11.07 -1.63905
C 18.4636 9.84013 -1.64539
C 20.5938 8.60995 -1.63969
C 22.7242 7.38033 -1.63065
C 24.8544 6.15042 -1.61472
C 26.9858 4.92001 -1.60449
C 29.116 3.69012 -1.59069
C 31.2462 2.46 -1.585
C 33.3766 1.23 -1.585
C 35.507 0 -1.585
C 37.6375 -1.23 -1.585
C 39.7679 -2.46 -1.585
C 41.8983 -3.69 -1.585
C -22.0144 35.67 -1.585
C -19.8839 34.44 -1.585
C -17.7535 33.21 -1.585
C -15.6231 31.98 -1.585
C -13.4928 30.7499 -1.59675
C -11.3624 29.5199 -1.61941
C -9.23251 28.2894 -1.64293
C -7.10148 27.0596 -1.65531
C -4.97105 25.8297 -1.65288
C -2.84065 24.5996 -1.64599
C -0.71022 23.3702 -1.64062
C 1.42007 22.1402 -1.6421
C 3.55062 20.9102 -1.63836
C 5.68084 19.6799 -1.64158
C 7.8116 18.4497 -1.6431
C 9.9422 17.22 -1.64205
C 12.0726 15.9899 -1.64685
C 14.203 14.76 -1.64606
C 16.333 13.5298 -1.6498
C 18.4636 12.2998 -1.65094
C 20.5939 11.0697 -1.64858
C 22.7244 9.83933 -1.63718
C 24.855 8.61004 -1.62485
C 26.9854 7.38026 -1.61259
C 29.1157 6.15054 -1.59025
C 31.2462 4.92 -1.585
C 33.3766 3.69 -1.585
C 35.507 2.46 -1.585
C 37.6375 1.23 -1.585
C 39.7679 -8.88178e-16 -1.585
C 41.8983 -1.23 -1.585
C -19.8839 36.9 -1.585
C -17.7535 35.67 -1.585
C -15.6231 34.44 -1.585
C -13.4927 33.21 -1.585
C -11.3623 31.98 -1.585
C -9.23161 30.7488 -1.6104
C -7.1011 29.5199 -1.62892
C -4.97112 28.2896 -1.64154
C -2.84072 27.0604 -1.64163
C -0.711091 25.8303 -1.63993
C 1.42031 24.5999 -1.64623
C 3.55065 23.3703 -1.6462
C 5.68094 22.1398 -1.63778
C 7.81174 20.9104 -1.63437
C 9.94191 19.6798 -1.64068
C 12.0727 18.4501 -1.65082
C 14.2026 17.22 -1.65361
C 16.3339 15.9893 -1.65036
C 18.4641 14.76 -1.65051
C 20.594 13.5296 -1.64516
C 22.7246 12.3002 -1.63079
C 24.8543 11.0698 -1.62105
C 26.9854 9.8401 -1.61441
C 29.1158 8.61 -1.585
C 31.2462 7.38 -1.585
C 33.3766 6.15 -1.585
C 35.507 4.92 -1.585
C 37.6375 3.69 -1.585
C 39.7679 2.46 -1.585
C 41.8983 1.23 -1.585
C -17.7535 38.13 -1.585
C -15.6231 36.9 -1.585
C -13.4927 35.67 -1.585
C -11.3623 34.44 -1.585
C -9.23183 33.21 -1.585
C -7.10217 31.9796 -1.5976
C -4.9707 30.7492 -1.61905
C -2.84064 29.5203 -1.63203
C -0.710316 28.2903 -1.63083
C 1.42034 27.061 -1.63969
C 3.55052 25.8302 -1.64519
C 5.68099 24.6006 -1.64797
C 7.81075 23.3701 -1.64263
C 9.9424 22.1394 -1.64383
C 12.0729 20.9102 -1.65066
C 14.203 19.68 -1.6507
C 16.3339 18.4505 -1.65088
C 18.464 17.2199 -1.64641
C 20.5945 15.99 -1.64775
C 22.724 14.7598 -1.63425
C 24.8554 13.5293 -1.61303
C 26.9859 12.3006 -1.60185
C 29.1158 11.07 -1.585
C 31.2462 9.84 -1.585
C 33.3766 8.61 -1.585
C 35.507 7.38 -1.585
C 37.6375 6.15 -1.585
C 39.7679 4.92 -1.585
C 41.8983 3.69 -1.585
C -15.6231 39.36 -1.585
C -13.4927 38.13 -1.585
C -11.3623 36.9 -1.585
C -9.23183 35.67 -1.585
C -7.10141 34.44 -1.585
C -4.97099 33.21 -1.585
C -2.84068 31.9801 -1.60036
C -0.710488 30.7505 -1.61872
C 1.41982 29.5206 -1.62898
C 3.55073 28.29 -1.64234
C 5.68102 27.0598 -1.64878
C 7.81161 25.8301 -1.64987
C 9.94206 24.6002 -1.65531
C 12.0724 23.3701 -1.64995
C 14.2026 22.1398 -1.65048
C 16.3331 20.91 -1.65021
C 18.4641 19.6798 -1.64637
C 20.5945 18.4496 -1.64145
C 22.7247 17.2197 -1.62525
C 24.8553 15.9901 -1.60903
C 26.9854 14.76 -1.585
C 29.1158 13.53 -1.585
C 31.2462 12.3 -1.585
C 33.3766 11.07 -1.585
C 35.507 9.84 -1.585
C 37.6375 8.61 -1.585
C 39.7679 7.38 -1.585
C 41.8983 6.15 -1.585
C -11.3623 39.36 -1.585
C -9.23183 38.13 -1.585
C -7.10141 36.9 -1.585
C -4.97099 35.67 -1.585
C -2.84056 34.44 -1.585
C -0.710141 33.21 -1.585
C 1.42051 31.9805 -1.60122
C 3.55055 30.75 -1.62216
C 5.68084 29.52 -1.63086
C 7.81092 28.2898 -1.63752
C 9.94204 27.0601 -1.64498
C 12.0725 25.8301 -1.64441
C 14.203 24.5994 -1.63609
C 16.3333 23.3698 -1.63319
C 18.4636 22.1399 -1.63688
C 20.594 20.9102 -1.62466
C 22.7237 19.6797 -1.60792
C 24.8549 18.45 -1.585
C 26.9854 17.22 -1.585
C 29.1158 15.99 -1.585
C 31.2462 14.76 -1.585
C 33.3766 13.53 -1.585
C 35.507 12.3 -1.585
C 37.6375 11.07 -1.585
C 39.7679 9.84 -1.585
C -9.23183 40.59 -1.585
C -7.10141 39.36 -1.585
C -4.97099 38.13 -1.585
C -2.84056 36.9 -1.585
C -0.710141 35.67 -1.585
C 1.42028 34.44 -1.585
C 3.5507 33.21 -1.585
C 5.68066 31.9798 -1.60343
C 7.8118 30.7489 -1.60444
C 9.94261 29.5206 -1.60664
C 12.0722 28.2897 -1.60881
C 14.203 27.0609 -1.60567
C 16.3322 25.8296 -1.60321
C 18.4636 24.5996 -1.60757
C 20.5939 23.3699 -1.60514
C 22.7245 22.14 -1.585
C 24.8549 20.91 -1.585
C 26.9854 19.68 -1.585
C 29.1158 18.45 -1.585
C 31.2462 17.22 -1.585
C 33.3766 15.99 -1.585
C 35.507 14.76 -1.585
C 37.6375 13.53 -1.585
C 39.7679 12.3 -1.585
C -7.10141 41.82 -1.585
C -4.97099 40.59 -1.585
C -2.84056 39.36 -1.585
C -0.710141 38.13 -1.585
C 1.42028 36.9 -1.585
C 3.5507 35.67 -1.585
C 5.68113 34.44 -1.585
C 7.81155 33.21 -1.585
C 9.94197 31.98 -1.585
C 12.0724 30.75 -1.585
C 14.2028 29.52 -1.585
C 16.3332 28.29 -1.585
C 18.4637 27.06 -1.585
C 20.5941 25.83 -1.585
C 22.7245 24.6 -1.585
C 24.8549 23.37 -1.585
C 26.9854 22.14 -1.585
C 29.1158 20.91 -1.585
C 31.2462 19.68 -1.585
C 33.3766 18.45 -1.585
C 35.507 17.22 -1.585
C 37.6375 15.99 -1.585
C 39.7679 14.76 -1.585
C -2.84056 41.82 -1.585
C -0.710141 40.59 -1.585
C 1.42028 39.36 -1.585
C 3.5507 38.13 -1.585
C 5.68113 36.9 -1.585
C 7.81155 35.67 -1.585
C 9.94197 34.44 -1.585
C 12.0724 33.21 -1.585
C 14.2028 31.98 -1.585
C 16.3332 30.75 -1.585
C 18.4637 29.52 -1.585
C 20.5941 28.29 -1.585
C 22.7245 27.06 -1.585
C 24.8549 25.83 -1.585
C 26.9854 24.6 -1.585
C 29.1158 23.37 -1.585
C 31.2462 22.14 -1.585
C 33.3766 20.91 -1.585
C 35.507 19.68 -1.585
C 37.6375 18.45 -1.585
C 1.42028 41.82 -1.585
C 3.5507 40.59 -1.585
C 5.68113 39.36 -1.585
C 7.81155 38.13 -1.585
C 9.94197 36.9 -1.585
C 12.0724 35.67 -1.585
C 14.2028 34.44 -1.585
C 16.3332 33.21 -1.585
C 18.4637 31.98 -1.585
C 20.5941 30.75 -1.585
C 22.7245 29.52 -1.585
C 24.8549 28.29 -1.585
C 26.9854 27.06 -1.585
C 29.1158 25.83 -1.585
C 31.2462 24.6 -1.585
C 33.3766 23.37 -1.585
C 35.507 22.14 -1.585
C 5.68113 41.82 -1.585
C 7.81155 40.59 -1.585
C 9.94197 39.36 -1.585
C 12.0724 38.13 -1.585
C 14.2028 36.9 -1.585
C 16.3332 35.67 -1.585
C 18.4637 34.44 -1.585
C 20.5941 33.21 -1.585
C 22.7245 31.98 -1.585
C 24.8549 30.75 -1.585
C 26.9854 29.52 -1.585
C 29.1158 28.29 -1.585
C 31.2462 27.06 -1.585
C 33.3766 25.83 -1.585
C 12.0724 40.59 -1.585
C 14.2028 39.36 -1.585
C 16.3332 38.13 -1.585
C 18.4637 36.9 -1.585
C 20.5941 35.67 -1.585
C 22.7245 34.44 -1.585
C 24.8549 33.21 -1.585
C 26.9854 31.98 -1.585
C 29.1158 30.75 -1.585
C -21.3042 -36.9 -1.585
C -29.8259 -29.52 -1.585
C -27.6955 -30.75 -1.585
C -25.5651 -31.98 -1.585
C -23.4346 -33.21 -1.585
C -21.3042 -34.44 -1.585
C -19.1738 -35.67 -1.585
C -17.0434 -36.9 -1.585
C -14.913 -38.13 -1.585
C -12.7825 -39.36 -1.585
C -10.6521 -40.59 -1.585
C -34.0868 -24.6 -1.585
C -31.9563 -25.83 -1.585
C -29.8259 -27.06 -1.585
C -27.6955 -28.29 -1.585
C -25.5651 -29.52 -1.585
C -23.4346 -30.75 -1.585
C -21.3042 -31.98 -1.585
C -19.1738 -33.21 -1.585
C -17.0434 -34.44 -1.585
C -14.913 -35.67 -1.585
C -12.7825 -36.9 -1.585
C -10.6521 -38.13 -1.585
C -8.52169 -39.36 -1.585
C -6.39127 -40.59 -1.585
C -4.26084 -41.82 -1.585
C -36.2172 -20.91 -1.585
C -34.0868 -22.14 -1.585
C -31.9563 -23.37 -1.585
C -29.8259 -24.6 -1.585
C -27.6955 -25.83 -1.585
C -25.5651 -27.06 -1.585
C -23.4346 -28.29 -1.585
C -21.3042 -29.52 -1.585
C -19.1738 -30.75 -1.585
C -17.0434 -31.98 -1.585
C -14.913 -33.21 -1.585
C -12.7825 -34.44 -1.585
C -10.6521 -35.67 -1.585
C -8.52169 -36.9 -1.585
C -6.39127 -38.13 -1.585
C -4.26084 -39.36 -1.585
C -2.13042 -40.59 -1.585
C 0 -41.82 -1.585
C -38.3476 -17.22 -1.585
C -36.2172 -18.45 -1.585
C -34.0868 -19.68 -1.585
C -31.9563 -20.91 -1.585
C -29.8259 -22.14 -1.585
C -27.6955 -23.37 -1.585
C -25.5651 -24.6 -1.585
C -23.4346 -25.83 -1.585
C -21.3042 -27.06 -1.585
C -19.1738 -28.29 -1.585
C -17.0434 -29.52 -1.585
C -14.913 -30.75 -1.585
C -12.7825 -31.98 -1.585
C -10.6521 -33.21 -1.585
C -8.52169 -34.44 -1.585
C -6.39127 -35.67 -1.585
C -4.26084 -36.9 -1.585
C -2.13042 -38.13 -1.585
C 0 -39.36 -1.585
C 2.13042 -40.59 -1.585
C 4.26084 -41.82 -1.585
C -38.3476 -14.76 -1.585
C -36.2172 -15.99 -1.585