Mixed graphene (30 degrees)
1 atoms
2 atom types

-106.52112466548594 106.52112466548594 xlo xhi
-106.52112466548594 106.52112466548594 ylo yhi
-106.52112466548594 106.52112466548594 zlo zhi

Masses

1 12.0107
2 1.001

Atoms

1 2 -47.5852 -84.8768 -2.88065

energy = -1.12157786283786
